<?xml version="1.0"?>
<VTKFile type="UnstructuredGrid"  version="0.1"  >
<UnstructuredGrid>
<Piece  NumberOfPoints="2868" NumberOfCells="5400">
<Points>
<DataArray  type="Float64"  NumberOfComponents="3"  format="ascii">0.534923 0.326073 0  0.510642 0.314196 0  0.466125 0.293082 0  0.436448 0.281205 0  0.409468 0.275927 0  0.368998 0.270648 0  0.35281 0.275927 0  0.381139 0.302319 0  0.405421 0.326073 0  0.410817 0.33531 0  0.408119 0.349826 0  0.400025 0.357744 0  0.375743 0.368301 0  0.329878 0.392055 0  0.297502 0.432963 0  0.282663 0.476511 0  0.285361 0.524018 0  0.298851 0.572845 0  0.317737 0.6045160000000001 0  0.337972 0.6361869999999999 0  0.360904 0.674457 0  0.368998 0.69953 0  0.359555 0.7219640000000001 0  0.360904 0.757594 0  0.370347 0.766831 0  0.381139 0.762872 0  0.390582 0.741758 0  0.404072 0.720644 0  0.424307 0.707448 0  0.447239 0.702169 0  0.480964 0.704808 0  0.479615 0.6889729999999999 0  0.468823 0.675776 0  0.447239 0.6691780000000001 0  0.428354 0.6691780000000001 0  0.410817 0.6639 0  0.404072 0.653343 0  0.395978 0.628269 0  0.387884 0.59132 0  0.389233 0.576804 0  0.397327 0.557009 0  0.410817 0.547772 0  0.424307 0.546452 0  0.437797 0.55305 0  0.44589 0.5662469999999999 0  0.441843 0.582082 0  0.439145 0.5979179999999999 0  0.449937 0.609795 0  0.468823 0.603196 0  0.479615 0.59 0  0.489058 0.570205 0  0.494454 0.546452 0  0.505246 0.522699 0  0.522783 0.509502 0  0.55246 0.494986 0  0.586185 0.484429 0  0.615863 0.48047 0  0.64554 0.473872 0  0.6671240000000001 0.461995 0  0.683312 0.451438 0  0.696802 0.435603 0  0.703547 0.417128 0  0.7116400000000001 0.393374 0  0.7183850000000001 0.37226 0  0.7251300000000001 0.364342 0  0.739969 0.353785 0  0.7453650000000001 0.344548 0  0.7453650000000001 0.327393 0  0.737271 0.318155 0  0.7183850000000001 0.316835 0  0.7008490000000001 0.319475 0  0.677916 0.318155 0  0.650936 0.316835 0  0.610467 0.318155 0  0.57944 0.324753 0  0.559205 0.328712 0  0.5389699999999999 0.326073 0  1 1 0  1 0 0  0 0 0  0 1 0  0.532238 0.32476 0  0.528748 0.323052 0  0.52421 0.320833 0  0.518311 0.317947 0  0.503447 0.310783 0  0.494093 0.306347 0  0.481933 0.30058 0  0.452151 0.28749 0  0.392327 0.273691 0  0.379141 0.271971 0  0.360474 0.283066 0  0.369797 0.291752 0  0.391424 0.31238 0  0.399335 0.32012 0  0.40958 0.341964 0  0.393939 0.36039 0  0.386028 0.36383 0  0.364248 0.374254 0  0.349304 0.381994 0  0.315801 0.409841 0  0.292986 0.551616 0  0.350934 0.657818 0  0.360127 0.737055 0  0.360566 0.748664 0  0.385245 0.753692 0  0.396447 0.732578 0  0.466301 0.703661 0  0.459439 0.672908 0  0.418442 0.666195 0  0.400553 0.642441 0  0.39255 0.612619 0  0.389913 0.60058 0  0.392752 0.568197 0  0.444131 0.573132 0  0.458149 0.606926 0  0.5005540000000001 0.533026 0  0.571522 0.489019 0  0.632637 0.476741 0  0.689177 0.444553 0  0.708121 0.403702 0  0.715453 0.38144 0  0.732406 0.359166 0  0.7453650000000001 0.337089 0  0.72906 0.317581 0  0.629879 0.317522 0  0.59293 0.321884 0  0.568003 0.326991 0  0.55202 0.327775 0  0.546493 0.327054 0  0.542241 0.326499 0  1 0.9 0  1 0.8 0  1 0.7 0  1 0.6 0  1 0.5 0  1 0.4 0  1 0.3 0  1 0.2 0  1 0.1 0  0.9 0 0  0.8 0 0  0.7 0 0  0.6 0 0  0.5 0 0  0.4 0 0  0.3 0 0  0.2 0 0  0.1 0 0  0.1 1 0  0.2 1 0  0.3 1 0  0.4 1 0  0.5 1 0  0.6 1 0  0.7 1 0  0.8 1 0  0.9 1 0  0 0.1 0  0 0.2 0  0 0.3 0  0 0.4 0  0 0.5 0  0 0.6 0  0 0.7 0  0 0.8 0  0 0.9 0  0.535686 0.5031910000000001 0  0.753987 0.733359 0  0.167145 0.741436 0  0.173378 0.257204 0  0.733497 0.159862 0  0.554096 0.15788 0  0.849187 0.479053 0  0.488793 0.838452 0  0.138507 0.5592 0  0.30686 0.154944 0  0.348904 0.890523 0  0.058006 0.065099 0  0.06984899999999999 0.937917 0  0.93633 0.939704 0  0.934625 0.053613 0  0.343397 0.333452 0  0.473272 0.639943 0  0.433266 0.638072 0  0.415174 0.58269 0  0.533435 0.545042 0  0.390848 0.340652 0  0.53655 0.320242 0  0.127966 0.393775 0  0.83861 0.850455 0  0.635242 0.8551299999999999 0  0.852158 0.633441 0  0.653427 0.626848 0  0.861226 0.24292 0  0.166128 0.12976 0  0.216875 0.8698709999999999 0  0.458305 0.11179 0  0.84446 0.101633 0  0.202024 0.642528 0  0.644825 0.115855 0  0.671342 0.218358 0  0.251354 0.286186 0  0.262388 0.75153 0  0.063044 0.751571 0  0.068189 0.242962 0  0.435781 0.9053949999999999 0  0.934144 0.451133 0  0.568393 0.237622 0  0.814984 0.395506 0  0.752951 0.517227 0  0.456254 0.780699 0  0.073352 0.531116 0  0.337731 0.206071 0  0.363213 0.960371 0  0.330742 0.363592 0  0.516613 0.55705 0  0.369057 0.332992 0  0.500926 0.617309 0  0.498004 0.665534 0  0.412142 0.61178 0  0.454233 0.6366039999999999 0  0.422782 0.567496 0  0.541193 0.5214800000000001 0  0.439761 0.65557 0  0.5163 0.533672 0  0.414775 0.64562 0  0.40073 0.576135 0  0.430362 0.5880339999999999 0  0.385432 0.351492 0  0.400298 0.335397 0  0.398325 0.348194 0  0.528702 0.314885 0  0.540814 0.322334 0  0.534477 0.322953 0  0.619095 0.743583 0  0.885162 0.737972 0  0.08076 0.668849 0  0.90734 0.36634 0  0.09468699999999999 0.868937 0  0.759838 0.912152 0  0.901518 0.540898 0  0.747285 0.607479 0  0.229182 0.071641 0  0.06915399999999999 0.450091 0  0.244775 0.203309 0  0.076534 0.331755 0  0.897847 0.167826 0  0.578909 0.911415 0  0.07713299999999999 0.146341 0  0.477215 0.203448 0  0.922631 0.869341 0  0.517415 0.074785 0  0.297026 0.827793 0  0.7832710000000001 0.246505 0  0.74519 0.061079 0  0.36033 0.069068 0  0.210313 0.475228 0  0.859426 0.928758 0  0.5745479999999999 0.609182 0  0.243069 0.383398 0  0.283099 0.934598 0  0.417416 0.843141 0  0.643942 0.553164 0  0.112687 0.079336 0  0.281357 0.658386 0  0.765043 0.436177 0  0.611361 0.198486 0  0.234496 0.58911 0  0.206479 0.702638 0  0.679608 0.155818 0  0.62682 0.259978 0  0.690538 0.264164 0  0.448938 0.956308 0  0.808154 0.328403 0  0.379583 0.91913 0  0.308083 0.297769 0  0.312358 0.730249 0  0.563101 0.278576 0  0.435597 0.746198 0  0.385475 0.225229 0  0.572248 0.518034 0  0.357864 0.35422 0  0.497647 0.641694 0  0.458101 0.655768 0  0.360474 0.310727 0  0.467038 0.620139 0  0.47798 0.659909 0  0.41102 0.628072 0  0.48324 0.609015 0  0.427544 0.617941 0  0.388633 0.328253 0  0.405336 0.599404 0  0.408351 0.565178 0  0.42395 0.600985 0  0.431562 0.576523 0  0.424905 0.6551979999999999 0  0.398064 0.58782 0  0.427739 0.557934 0  0.5192909999999999 0.303443 0  0.53142 0.320293 0  0.5449000000000001 0.323642 0  0.537166 0.323513 0  0.153974 0.920841 0  0.9181859999999999 0.67343 0  0.759946 0.820588 0  0.5375259999999999 0.783091 0  0.816532 0.545843 0  0.813991 0.178083 0  0.836774 0.702023 0  0.149815 0.318856 0  0.662287 0.923338 0  0.680146 0.791192 0  0.708961 0.663172 0  0.9372779999999999 0.287318 0  0.574622 0.6881660000000001 0  0.5894740000000001 0.076262 0  0.502822 0.926683 0  0.222269 0.811068 0  0.380457 0.164786 0  0.15321 0.684154 0  0.458063 0.051413 0  0.161702 0.056026 0  0.199351 0.198818 0  0.298946 0.09553200000000001 0  0.902465 0.795949 0  0.121139 0.791477 0  0.906269 0.112287 0  0.056109 0.822332 0  0.512172 0.13237 0  0.940964 0.741805 0  0.888887 0.408777 0  0.354543 0.825964 0  0.808736 0.068638 0  0.068507 0.394071 0  0.719105 0.563843 0  0.247287 0.149664 0  0.293062 0.237128 0  0.240524 0.434997 0  0.141255 0.623289 0  0.945202 0.160621 0  0.502914 0.247629 0  0.144669 0.480811 0  0.665025 0.060817 0  0.728047 0.224344 0  0.861995 0.313312 0  0.200068 0.534235 0  0.253262 0.965623 0  0.893804 0.49307 0  0.604391 0.572456 0  0.947088 0.345347 0  0.439372 0.227307 0  0.629847 0.159823 0  0.273405 0.880181 0  0.302744 0.776823 0  0.781502 0.295365 0  0.275342 0.349602 0  0.7283849999999999 0.472798 0  0.229136 0.246478 0  0.807794 0.480346 0  0.709476 0.112786 0  0.275506 0.694991 0  0.771674 0.394419 0  0.449715 0.861802 0  0.419159 0.799696 0  0.674851 0.503139 0  0.280443 0.61016 0  0.572443 0.192538 0  0.393113 0.87525 0  0.405555 0.948428 0  0.330942 0.934103 0  0.540509 0.597101 0  0.312763 0.6689310000000001 0  0.254368 0.540179 0  0.595265 0.25915 0  0.606679 0.234099 0  0.657131 0.279138 0  0.722458 0.279478 0  0.333 0.308056 0  0.351529 0.246142 0  0.455714 0.7257940000000001 0  0.585239 0.295143 0  0.340062 0.72492 0  0.545593 0.293773 0  0.555449 0.545426 0  0.414311 0.737314 0  0.590854 0.502323 0  0.350507 0.368444 0  0.484423 0.625665 0  0.483899 0.674542 0  0.378137 0.317274 0  0.446416 0.646404 0  0.373532 0.347654 0  0.446876 0.619769 0  0.466106 0.666068 0  0.437545 0.609254 0  0.434988 0.565726 0  0.41462 0.656829 0  0.418803 0.556961 0  0.398425 0.327446 0  0.517803 0.310421 0  0.549516 0.322918 0  0.57701 0.842889 0  0.8291269999999999 0.773906 0  0.643235 0.684732 0  0.134281 0.207734 0  0.865997 0.055966 0  0.680959 0.723345 0  0.165229 0.8415550000000001 0  0.54558 0.959672 0  0.783726 0.656439 0  0.913315 0.595533 0  0.699439 0.860667 0  0.785839 0.125076 0  0.551673 0.037713 0  0.9200970000000001 0.223214 0  0.206406 0.299726 0  0.087064 0.596401 0  0.935644 0.394252 0  0.964557 0.252582 0  0.230124 0.928346 0  0.120579 0.271764 0  0.8572149999999999 0.524082 0  0.7670979999999999 0.5551469999999999 0  0.936094 0.507131 0  0.804064 0.59585 0  0.700565 0.608273 0  0.429773 0.174231 0  0.117746 0.727333 0  0.5389620000000001 0.730231 0  0.862761 0.359173 0  0.821444 0.284046 0  0.193552 0.35818 0  0.234923 0.505555 0  0.193209 0.421217 0  0.220144 0.755896 0  0.594015 0.131642 0  0.283813 0.195855 0  0.517519 0.213961 0  0.553509 0.639116 0  0.280391 0.378018 0  0.852183 0.436817 0  0.746983 0.197173 0  0.821806 0.221318 0  0.449853 0.828453 0  0.883758 0.453926 0  0.183484 0.589542 0  0.348384 0.129314 0  0.255254 0.838525 0  0.504849 0.798516 0  0.320344 0.863432 0  0.611669 0.525425 0  0.265864 0.804962 0  0.72056 0.521442 0  0.613372 0.6101220000000001 0  0.481262 0.881068 0  0.655778 0.191988 0  0.701921 0.196918 0  0.5658260000000001 0.5731810000000001 0  0.46914 0.240927 0  0.343219 0.173284 0  0.888786 0.278502 0  0.244113 0.6750930000000001 0  0.739546 0.417914 0  0.784023 0.355942 0  0.326805 0.265549 0  0.248616 0.6
[...]
<PointData  Vectors="f_183-0"> 
<DataArray  type="Float64"  Name="f_183-0"  NumberOfComponents="3" format="ascii">0.0000000000000000e+00 -1.3986233415272897e-16 0.0000000000000000e+00  0.0000000000000000e+00 0.0000000000000000e+00 0.0000000000000000e+00  0.0000000000000000e+00 5.0426091224550348e-15 0.0000000000000000e+00  0.0000000000000000e+00 9.5118878664242123e-16 0.0000000000000000e+00  0.0000000000000000e+00 1.3842376590901266e-14 0.0000000000000000e+00  0.0000000000000000e+00 1.5647124684148785e-14 0.0000000000000000e+00  0.0000000000000000e+00 0.0000000000000000e+00 0.0000000000000000e+00  -9.0759519111428642e-16 0.0000000000000000e+00 0.0000000000000000e+00  0.0000000000000000e+00 0.0000000000000000e+00 0.0000000000000000e+00  1.1783913558216674e-16 0.0000000000000000e+00 0.0000000000000000e+00  -2.6903915074330136e-16 0.0000000000000000e+00 0.0000000000000000e+00  0.0000000000000000e+00 0.0000000000000000e+00 0.0000000000000000e+00  -1.7664376440327656e-16 3.2108259673585182e-17 0.0000000000000000e+00  0.0000000000000000e+00 0.0000000000000000e+00 0.0000000000000000e+00  1.6531135525412774e-15 0.0000000000000000e+00 0.0000000000000000e+00  -2.2287781296282085e-15 0.0000000000000000e+00 0.0000000000000000e+00  3.3947276331504588e-16 0.0000000000000000e+00 0.0000000000000000e+00  -7.2732405175812948e-16 0.0000000000000000e+00 0.0000000000000000e+00  -1.4274384363845369e-15 0.0000000000000000e+00 0.0000000000000000e+00  -2.2677928120969434e-15 0.0000000000000000e+00 0.0000000000000000e+00  4.2431608327894998e-16 0.0000000000000000e+00 0.0000000000000000e+00  2.0903687424583170e-16 0.0000000000000000e+00 0.0000000000000000e+00  0.0000000000000000e+00 0.0000000000000000e+00 0.0000000000000000e+00  0.0000000000000000e+00 0.0000000000000000e+00 0.0000000000000000e+00  0.0000000000000000e+00 0.0000000000000000e+00 0.0000000000000000e+00  0.0000000000000000e+00 0.0000000000000000e+00 0.0000000000000000e+00  -8.5824328024590818e-15 0.0000000000000000e+00 0.0000000000000000e+00  0.0000000000000000e+00 0.0000000000000000e+00 0.0000000000000000e+00  -1.0340814302509466e-14 -2.8705381666547026e-16 0.0000000000000000e+00  0.0000000000000000e+00 5.9823000079059326e-15 0.0000000000000000e+00  0.0000000000000000e+00 0.0000000000000000e+00 0.0000000000000000e+00  3.7792122823662658e-14 0.0000000000000000e+00 0.0000000000000000e+00  1.0558686648841470e-14 0.0000000000000000e+00 0.0000000000000000e+00  0.0000000000000000e+00 -9.1385667378988799e-16 0.0000000000000000e+00  0.0000000000000000e+00 -5.6108096257919716e-15 0.0000000000000000e+00  1.3166383075038283e-15 2.5161527119267955e-15 0.0000000000000000e+00  -5.1609125572889257e-15 0.0000000000000000e+00 0.0000000000000000e+00  -4.5271737635687997e-16 0.0000000000000000e+00 0.0000000000000000e+00  1.4805345328945860e-15 0.0000000000000000e+00 0.0000000000000000e+00  -5.2884711523381328e-15 0.0000000000000000e+00 0.0000000000000000e+00  -9.4434052311881107e-15 0.0000000000000000e+00 0.0000000000000000e+00  1.7888764318717317e-15 -2.1469714459353684e-16 0.0000000000000000e+00  0.0000000000000000e+00 -8.8049975934590982e-16 0.0000000000000000e+00  -3.4991903684247068e-16 -2.7432062796335143e-15 0.0000000000000000e+00  4.7878219638845156e-17 0.0000000000000000e+00 0.0000000000000000e+00  2.6353831069195010e-15 0.0000000000000000e+00 0.0000000000000000e+00  0.0000000000000000e+00 0.0000000000000000e+00 0.0000000000000000e+00  0.0000000000000000e+00 0.0000000000000000e+00 0.0000000000000000e+00  0.0000000000000000e+00 0.0000000000000000e+00 0.0000000000000000e+00  0.0000000000000000e+00 0.0000000000000000e+00 0.0000000000000000e+00  0.0000000000000000e+00 0.0000000000000000e+00 0.0000000000000000e+00  -4.5313532976419488e-15 0.0000000000000000e+00 0.0000000000000000e+00  0.0000000000000000e+00 0.0000000000000000e+00 0.0000000000000000e+00  0.0000000000000000e+00 -8.3100513655763409e-15 0.0000000000000000e+00  0.0000000000000000e+00 1.5340046774595292e-14 0.0000000000000000e+00  0.0000000000000000e+00 1.4660518326749124e-15 0.0000000000000000e+00  0.0000000000000000e+00 1.7464122357753715e-15 0.0000000000000000e+00  2.2919409441728351e-14 1.0180401511814859e-14 0.0000000000000000e+00  2.7390875227936978e-15 6.2229689500173287e-16 0.0000000000000000e+00  -1.9717998024241536e-14 4.3314246966221801e-15 0.0000000000000000e+00  0.0000000000000000e+00 0.0000000000000000e+00 0.0000000000000000e+00  8.5171709902326423e-15 0.0000000000000000e+00 0.0000000000000000e+00  8.0614660368519263e-15 0.0000000000000000e+00 0.0000000000000000e+00  0.0000000000000000e+00 0.0000000000000000e+00 0.0000000000000000e+00  0.0000000000000000e+00 0.0000000000000000e+00 0.0000000000000000e+00  -1.5869892349767786e-14 1.5726055671740374e-14 0.0000000000000000e+00  2.6550080202498684e-16 0.0000000000000000e+00 0.0000000000000000e+00  0.0000000000000000e+00 0.0000000000000000e+00 0.0000000000000000e+00  4.5497771009883797e-15 0.0000000000000000e+00 0.0000000000000000e+00  0.0000000000000000e+00 -1.5209386135393963e-15 0.0000000000000000e+00  0.0000000000000000e+00 2.1632742702723603e-15 0.0000000000000000e+00  0.0000000000000000e+00 0.0000000000000000e+00 0.0000000000000000e+00  0.0000000000000000e+00 -4.1102035449641837e-16 0.0000000000000000e+00  0.0000000000000000e+00 4.2573686300824883e-15 0.0000000000000000e+00  0.0000000000000000e+00 -2.4343004296176504e-16 0.0000000000000000e+00  0.0000000000000000e+00 2.5354056103389123e-16 0.0000000000000000e+00  0.0000000000000000e+00 -9.0754490574335414e-16 0.0000000000000000e+00  1.0000000000000001e+02 0.0000000000000000e+00 0.0000000000000000e+00  9.9999999999999915e+01 -2.6589401511976039e-14 0.0000000000000000e+00  0.0000000000000000e+00 0.0000000000000000e+00 0.0000000000000000e+00  0.0000000000000000e+00 0.0000000000000000e+00 0.0000000000000000e+00  0.0000000000000000e+00 9.1646481454415872e-16 0.0000000000000000e+00  5.8451332595272211e-16 2.8309181537382299e-16 0.0000000000000000e+00  0.0000000000000000e+00 5.0154724997470570e-16 0.0000000000000000e+00  0.0000000000000000e+00 0.0000000000000000e+00 0.0000000000000000e+00  -2.0860391484206579e-15 -3.0084665250461898e-15 0.0000000000000000e+00  0.0000000000000000e+00 -1.9402393347220134e-14 0.0000000000000000e+00  -2.3434262928747781e-15 2.0444029262671955e-15 0.0000000000000000e+00  0.0000000000000000e+00 7.5329710501454522e-15 0.0000000000000000e+00  0.0000000000000000e+00 -6.9745141728944441e-15 0.0000000000000000e+00  0.0000000000000000e+00 2.7111174533242447e-15 0.0000000000000000e+00  -4.2353286038527040e-15 -2.1175828181899889e-15 0.0000000000000000e+00  2.3225965907766301e-15 2.5160172770640513e-15 0.0000000000000000e+00  -1.4295228308477177e-15 1.9971025259007579e-16 0.0000000000000000e+00  -1.3418126149967686e-15 -5.4877327154205883e-16 0.0000000000000000e+00  0.0000000000000000e+00 0.0000000000000000e+00 0.0000000000000000e+00  0.0000000000000000e+00 -5.1597510414219931e-16 0.0000000000000000e+00  0.0000000000000000e+00 0.0000000000000000e+00 0.0000000000000000e+00  0.0000000000000000e+00 5.0802482955436462e-16 0.0000000000000000e+00  2.4355718547030765e-16 -6.4922360839962054e-17 0.0000000000000000e+00  1.7531002825761446e-15 0.0000000000000000e+00 0.0000000000000000e+00  0.0000000000000000e+00 0.0000000000000000e+00 0.0000000000000000e+00  -2.9768014555454329e-16 0.0000000000000000e+00 0.0000000000000000e+00  -3.9975212109992731e-15 0.0000000000000000e+00 0.0000000000000000e+00  2.0095670078107751e-15 0.0000000000000000e+00 0.0000000000000000e+00  0.0000000000000000e+00 0.0000000000000000e+00 0.0000000000000000e+00  0.0000000000000000e+00 0.0000000000000000e+00 0.0000000000000000e+00  0.0000000000000000e+00 1.9196914218813966e-15 0.0000000000000000e+00  0.0000000000000000e+00 -2.0212979242753285e-16 0.0000000000000000e+00  0.0000000000000000e+00 -4.7638378050052048e-16 0.0000000000000000e+00  -4.2524197938547197e-15 0.0000000000000000e+00 0.0000000000000000e+00  4.1710492794379728e-15 0.0000000000000000e+00 0.0000000000000000e+00  0.0000000000000000e+00 0.0000000000000000e+00 0.0000000000000000e+00  2.7623674264215447e-15 0.0000000000000000e+00 0.0000000000000000e+00  0.0000000000000000e+00 0.0000000000000000e+00 0.0000000000000000e+00  0.0000000000000000e+00 -1.2410682867322848e-14 0.0000000000000000e+00  4.9474096945563791e-15 0.0000000000000000e+00 0.0000000000000000e+00  0.0000000000000000e+00 1.2164471579271772e-14 0.0000000000000000e+00  0.0000000000000000e+00 2.0317162661911039e-15 0.0000000000000000e+00  -3.6983364914151944e-14 0.0000000000000000e+00 0.0000000000000000e+00  2.4770570810160235e-15 0.0000000000000000e+00 0.0000000000000000e+00  5.8279651089221746e-15 0.0000000000000000e+00 0.0000000000000000e+00  0.0000000000000000e+00 0.0000000000000000e+00 0.0000000000000000e+00  1.0492350156710236e-15 0.0000000000000000e+00 0.0000000000000000e+00  0.0000000000000000e+00 1.7125653449882458e-15 0.0000000000000000e+00  0.0000000000000000e+00 -5.2095863707437043e-15 0.0000000000000000e+00  0.0000000000000000e+00 1.6851170819827904e-15 0.0000000000000000e+00  0.0000000000000000e+00 -1.9957579924738823e-15 0.0000000000000000e+00  0.0000000000000000e+00 5.5936935080801908e-15 0.0000000000000000e+00  0.0000000000000000e+00 -5.1928025294583153e-16 0.0000000000000000e+00  0.0000000000000000e+00 -2.3948515969243887e-15 0.0000000000000000e+00  9.9999999999999972e+01 0.0000000000000000e+00 0.0000000000000000e+00  9.9999999999999872e+01 0.0000000000000000e+00 0.0000000000000000e+00  1.0000000000000009e+02 0.0000000000000000e+00 0.0000000000000000e+00  1.0000000000000018e+02 0.0000000000000000e+00 0.0000000000000000e+00  9.9999999999999702e+01 0.0000000000000000e+00 0.0000000000000000e+00  9.9999999999999915e+01 0.0000000000000000e+00 0.0000000000000000e+00  9.9999999999999915e+01 0.0000000000000000e+00 0.0000000000000000e+00  9.9999999999999972e+01 0.0000000000000000e+00 0.0000000000000000e+00  1.0000000000000003e+02 0.0000000000000000e+00 0.0000000000000000e+00  0.0000000000000000e+00 5.2498958128416927e-15 0.0000000000000000e+00  0.0000000000000000e+00 3.3520838620149154e-14 0.0000000000000000e+00  0.0000000000000000e+00 4.6399692318015114e-14 0.0000000000000000e+00  0.0000000000000000e+00 4.9501082653527707e-14 0.0000000000000000e+00  0.0000000000000000e+00 -1.5690039989557307e-15 0.0000000000000000e+00  0.0000000000000000e+00 -2.9347532414999362e-14 0.0000000000000000e+00  0.0000000000000000e+00 -3.1014364778692240e-15 0.0000000000000000e+00  0.0000000000000000e+00 2.4192992424487245e-16 0.0000000000000000e+00  0.0000000000000000e+00 3.7470833992515138e-16 0.0000000000000000e+00  0.0000000000000000e+00 2.0249404947809093e-15 0.0000000000000000e+00  0.0000000000000000e+00 1.7107602994752300e-15 0.0000000000000000e+00  0.0000000000000000e+00 -3.6976646166515065e-14 0.0000000000000000e+00  0.0000000000000000e+00 -4.9581194356183655e-15 0.0000000000000000e+00  0.0000000000000000e+00 1.8749463549916711e-14 0.0000000000000000e+00  0.0000000000000000e+00 4.8952654832160449e-14 0.0000000000000000e+00  0.0000000000000000e+00 6.7654134263931371e-14 0.0000000000000000e+00  0.0000000000000000e+00 -3.0557980114200183e-14 0.0000000000000000e+00  0.0000000000000000e+00 -8.6579207069447653e-15 0.0000000000000000e+00  8.7274903979292219e+01 -1.6229004351052836e+01 0.0000000000000000e+00  1.2640853222360501e+02 -3.4316728462720107e+01 0.0000000000000000e+00  1.1773230387525747e+02 -3.6637181672854709e+01 0.0000000000000000e+00  9.4788708732293159e+01 -2.0653751951818752e+01 0.0000000000000000e+00  8.5657853066474317e+01 5.3948448563788167e+00 0.0000000000000000e+00  9.9425617222932502e+01 3.2478163878076245e+01 0.0000000000000000e+00  1.2866375627800502e+02 4.9953978332248646e+01 0.0000000000000000e+00  1.4249984043502516e+02 4.6502127979383985e+01 0.0000000000000000e+00  1.0094224599748429e+02 2.2986288108682512e+01 0.0000000000000000e+00  -5.6823730399929684e-15 2.7101382353973159e-15 0.0000000000000000e+00  1.3468997099509875e+02 -4.4247124245677277e+01 0.0000000000000000e+00  1.3341792292208032e+02 8.7584610912188893e+01 0.0000000000000000e+00  1.2565521301410368e+02 -7.0223433683025462e+01 0.0000000000000000e+00  2.0920862573269287e+02 2.7595658468832607e+01 0.0000000000000000e+00  2.2453869095463330e+02 1.8842138676733391e+01 0.0000000000000000e+00  6.1893067144589850e+01 3.0350003502646272e+00 0.0000000000000000e+00  2.5851687431083167e+02 -8.0702245208698486e+01 0.0000000000000000e+00  5.1462369825054800e+01 2.6006310187664582e+01 0.0000000000000000e+00  2.2456673705669471e+02 -5.1926491045128863e+01 0.0000000000000000e+00  3.0152523289852570e+02 2.5138918748641693e+01 0.0000000000000000e+00  7.0057544952087895e+01 -8.8395954960308920e+00 0.0000000000000000e+00  8.3488468906032793e+01 1.1685772778818025e+01 0.0000000000000000e+00  1.0437615062856740e+02 3.0563103417095490e+01 0.0000000000000000e+00  1.0596643054773746e+02 -2.2997655602754239e+01 0.0000000000000000e+00  5.6490084417339237e-01 -6.2500118124371911e+00 0.0000000000000000e+00  -1.5627806015807444e-01 -1.0086972939100285e+00 0.0000000000000000e+00  -1.6451903651039424e-02 3.8046510021551000e-01 0.0000000000000000e+00  4.5073096647186596e-03 -9.0106785494165976e-04 0.0000000000000000e+00  3.3636176453373010e+00 -3.9259970868233296e+00 0.0000000000000000e+00  -2.2654902657047951e-01 9.1252516701357522e-01 0.0000000000000000e+00  5.2321000494605805e+00 1.2924673265469158e+00 0.0000000000000000e+00  6.6029309173649963e+01 -3.1887028244591075e+01 0.0000000000000000e+00  1.2805740770390881e+02 3.7599494538952847e+00 0.0000000000000000e+00  1.8403671197142134e+02 -5.3362826568405396e+01 0.0000000000000000e+00  1.0088118180933698e+02 -2.3704217950621434e+01 0.0000000000000000e+00  7.1142201308547698e+01 -5.2524425954366308e+01 0.0000000000000000e+00  1.3602535939091246e+02 6.9063993964942895e+01 0.0000000000000000e+00  1.4993530521061220e+02 -3.7561421371471802e+01 0.0000000000000000e+00  2.1371405304150073e+02 6.9501540095201847e+01 0.0000000000000000e+00  2.2894610248473609e+02 9.9363938607535900e+00 0.0000000000000000e+00  1.4613526991124365e+02 9.3918131130577329e+00 0.0000000000000000e+00  5.6235709785795180e+01 5.7466387067993431e+01 0.0000000000000000e+00  2.0370931210828866e+02 1.0789001757138191e+01 0.0000000000000000e+00  1.9235280805555308e+02 1.5809024723201658e+01 0.0000000000000000e+00  8.5896351333532792e+01 -7.8966566473056815e+01 0.0000000000000000e+00  1.1575094560261063e+02 1.1065202997226983e+02 0.0000000000000000e+00  1.4224392247774327e+02 5.7737674198343022e+01 0.0000000000000000e+00  1.2915262209553961e+02 -4.3791482717121482e+01 0.0000000000000000e+00  2.7432825620560112e+02 -2.8547550364025785e+01 0.0000000000000000e+00  8.8659044188910613e+01 1.6720438243942109e+01 0.0000000000000000e+00  1.5247381185788126e+02 1.4784663414708989e+01 0.0000000000000000e+00  3.2154163583148353e+01 3.2085052235794066e+01 0.0000000000000000e+00  5.0014099406017827e+01 -2.5462409525149354e+01 0.0000000000000000e+00  1.7182069067726763e+02 -7.7734358246798848e+01 0.0000000000000000e+00  6.8786805333511793e+01 1.5022251953497451e+01 0.0000000000000000e+00  2.0658613356845240e+02 -5.7178872988462018e+01 0.0000000000000000e+00  1.6129946542698184e+02 2.3580734504982694e+00 0.0000000000000000e+00  1.8200050430430590e+00 -5.6955200363864034e+00 0.0000000000000000e+00  1.9094585411679055e+00 -3.1674636635289191e+00 0.0000000000000000e+00  -4.0000262542409037e-01 1.7038960789091426e+00 0.0000000000000000e+00  2.1177398295904197e+00 -8.0438152860182459e+00 0.0000000000000000e+00  3.7240064384014846e+00 -1.8630915932195506e+01 0.0000000000000000e+00  -2.2366193474963738e-02 1.4634419700853179e-02 0.0000000000000000e+00  -2.7064339645288849e-01 7.2441381928159521e-01 0.0000000000000000e+00  2.3591000494021831e-03 9.0575505395706728e-04 0.0000000000000000e+00  2.0686041331145155e+00 -1.5950374979094177e+00 0.0000000000000000e+00  4.1872221756126105e-01 3.2013907011781872e-01 0.0000000000000000e+00  6.8731484003596977e-01 -8.6757521723565678e-01 0.0000000000000000e+00  3.6220029518850436e-02 9.5700908506922394e-02 0.0000000000000000e+00  1.9264975352209608e-03 -3.0154469067927409e-03 0.0000000000000000e+00  2.4736145380911461e-03 7.1542528989447822e-03 0.0000000000000000e+00  -7.4460846370817235e-01 7.5115179184086911e-01 0.0000000000000000e+00  4.9011484475905906e-02 3.7191772687639296e-01 0.0000000000000000e+00  -1.7662564188137686e-01 2.9117908054101382e-01 0.0000000000000000e+00  8.9412791466440655e+00 3.2201388671667783e+00 0.0000000000000000e+00  4.1254221697708493e+00 6.7253049517031027e-01 0.0000000000000000e+00  1.9483242788458979e+00 5.9786026194456288e-01 0.0000000000000000e+00  1.4528998792030890e+02 -8.9176341369939777e+01 0.0000000000000000e+00  1.1574990460062151e+02 -7.2117838661505891e+00 0.0000000000000000e+00  1.0767027370937875e+02 5.3552302778923270e+01 0.0000000000000000e+00  8.2531717378813724e+01 5.1618466266021265e+01 0.0000000000000000e+00  1.4848148004908273e+02 3.9655596591069653e+01 0.0000000000000000e+00  1.0728329904043495e+02 -7.4132277323767104e+00 0.0000000000000000e+00  8.8534389879367509e+01 -7.0375161624399754e+00 0.0000000000000000e+00  8.5003490997328697e+01 -4.1056217215878497e+01 0.0000000000000000e+00  1.3103251523488981e+02 -1.7271931707705459e+01 0.0000000000000000e+00  7.0870375388078600e+01 -1.0091503002082892e+01 0.0000000000000000e+00  1.7318371209139630e+02 -8.0531622235948092e+01 0.0000000000000000e+00  1.0069061426949624e+02 -3.9667479601450957e+01 0.0000000000000000e+00  1.3917939081076824e+02 2.3052750537272747e+01 0.0000000000000000e+00  1.7797030262975522e+02 -3.2550721383365357e+01 0.0000000000000000e+00  1.2717450487391578e+02 -3.0090913357642265e+01 0.0000000000000000e+00  2.0049953030983355e+02 2.9021252448896842e+01 0.0000000000000000e+00  1.1403866067062806e+02 2.7025933401566427e+01 0.0000000000000000e+00  1.7633978654031745e+02 7.1970664525238028e+00 0.0000000000000000e+00  2.5200214972938750e+02 1.0440714716981103e+02 0.0000000000000000e+00  1.6160886065005985e+02 6.8057058755245848e+01 0.0000000000000000e+00  1.2304715096693194e+02 5.8746282446282470e+00 0.0000000000000000e+00  1.7318846659927414e+02 -7.3847121399781956e+00 0.0000000000000000e+00  1.8915254877517828e+01 -6.2921423664702116e+00 0.0000000000000000e+00  9.2161136020312085e+01 1.0234102403515326e+01 0.0000000000000000e+00  2.8170746563111830e+01 -3.4094474540661359e+01 0.0000000000000000e+00  2.8796884445192298e+01 -3.4681764546527639e+01 0.0000000000000000e+00  1.9812340522391088e+02 2.4081884344077409e+01 0.0000000000000000e+00  2.9944812020796132e+02 -4.9923798884545896e+01 0.0000000000000000e+00  3.8097464706267367e+01 -2.5031586840937983e+01 0.0000000000000000e+00  9.6843490119973794e+01 -1.3948026403367562e+01 0.0000000000000000e+00  2.5051170266007674e+01 4.0942359482947737e+01 0.0000000000000000e+00  1.9173589621756349e+01 -4.7279854552338048e+00 0.0000000000000000e+00  2.0332284863634450e+02 1.3543385329487148e+01 0.0000000000000000e+00  2.3386387783136993e+01 3.0939454557172670e+01 0.0000000000000000e+00  9.1293813435916576e+01 8.4220231065708020e+01 0.0000000000000000e+00  2.1697678344288039e+02 1.7464094020160257e+01 0.0000000000000000e+00  1.2859922390931496e+02 3.7799509143506733e+00 0.0000000000000000e+00  1.3391102909363804e+02 1.2230423371131783e+01 0.0000000000000000e+00  1.6173159047960644e+02 -8.7221638367209717e+00 0.0000000000000000e+00  5.8799653317278917e+01 7.2658391443215663e+01 0.0000000000000000e+00  2.6754155971329061e+02 4.7577603724212003e-01 0.0000000000000000e+00  3.5720897856986007e+01 -5.6170617520101622e+01 0.0000000000000000e+00  4.1081208052432473e+01 7.1811418855912478e+01 0.0000000000000000e+00  8.0465367946259477e+01 6.9128274241439520e+00 0.0000000000000000e+00  6.4248294107098005e+01 -3.6270653635031934e+01 0.0000000000000000e+00  1.7523573459796043e+02 -7.8382330533414910e+00 0.0000000000000000e+00  6.0830354281683761e+00 -3.5882128315384296e+00 0.0000000000000000e+00  -1.6624484116435410e+