<?xml version="1.0"?>
<VTKFile type="UnstructuredGrid"  version="0.1"  >
<UnstructuredGrid>
<Piece  NumberOfPoints="2868" NumberOfCells="5400">
<Points>
<DataArray  type="Float64"  NumberOfComponents="3"  format="ascii">0.534923 0.326073 0  0.510642 0.314196 0  0.466125 0.293082 0  0.436448 0.281205 0  0.409468 0.275927 0  0.368998 0.270648 0  0.35281 0.275927 0  0.381139 0.302319 0  0.405421 0.326073 0  0.410817 0.33531 0  0.408119 0.349826 0  0.400025 0.357744 0  0.375743 0.368301 0  0.329878 0.392055 0  0.297502 0.432963 0  0.282663 0.476511 0  0.285361 0.524018 0  0.298851 0.572845 0  0.317737 0.6045160000000001 0  0.337972 0.6361869999999999 0  0.360904 0.674457 0  0.368998 0.69953 0  0.359555 0.7219640000000001 0  0.360904 0.757594 0  0.370347 0.766831 0  0.381139 0.762872 0  0.390582 0.741758 0  0.404072 0.720644 0  0.424307 0.707448 0  0.447239 0.702169 0  0.480964 0.704808 0  0.479615 0.6889729999999999 0  0.468823 0.675776 0  0.447239 0.6691780000000001 0  0.428354 0.6691780000000001 0  0.410817 0.6639 0  0.404072 0.653343 0  0.395978 0.628269 0  0.387884 0.59132 0  0.389233 0.576804 0  0.397327 0.557009 0  0.410817 0.547772 0  0.424307 0.546452 0  0.437797 0.55305 0  0.44589 0.5662469999999999 0  0.441843 0.582082 0  0.439145 0.5979179999999999 0  0.449937 0.609795 0  0.468823 0.603196 0  0.479615 0.59 0  0.489058 0.570205 0  0.494454 0.546452 0  0.505246 0.522699 0  0.522783 0.509502 0  0.55246 0.494986 0  0.586185 0.484429 0  0.615863 0.48047 0  0.64554 0.473872 0  0.6671240000000001 0.461995 0  0.683312 0.451438 0  0.696802 0.435603 0  0.703547 0.417128 0  0.7116400000000001 0.393374 0  0.7183850000000001 0.37226 0  0.7251300000000001 0.364342 0  0.739969 0.353785 0  0.7453650000000001 0.344548 0  0.7453650000000001 0.327393 0  0.737271 0.318155 0  0.7183850000000001 0.316835 0  0.7008490000000001 0.319475 0  0.677916 0.318155 0  0.650936 0.316835 0  0.610467 0.318155 0  0.57944 0.324753 0  0.559205 0.328712 0  0.5389699999999999 0.326073 0  1 1 0  1 0 0  0 0 0  0 1 0  0.532238 0.32476 0  0.528748 0.323052 0  0.52421 0.320833 0  0.518311 0.317947 0  0.503447 0.310783 0  0.494093 0.306347 0  0.481933 0.30058 0  0.452151 0.28749 0  0.392327 0.273691 0  0.379141 0.271971 0  0.360474 0.283066 0  0.369797 0.291752 0  0.391424 0.31238 0  0.399335 0.32012 0  0.40958 0.341964 0  0.393939 0.36039 0  0.386028 0.36383 0  0.364248 0.374254 0  0.349304 0.381994 0  0.315801 0.409841 0  0.292986 0.551616 0  0.350934 0.657818 0  0.360127 0.737055 0  0.360566 0.748664 0  0.385245 0.753692 0  0.396447 0.732578 0  0.466301 0.703661 0  0.459439 0.672908 0  0.418442 0.666195 0  0.400553 0.642441 0  0.39255 0.612619 0  0.389913 0.60058 0  0.392752 0.568197 0  0.444131 0.573132 0  0.458149 0.606926 0  0.5005540000000001 0.533026 0  0.571522 0.489019 0  0.632637 0.476741 0  0.689177 0.444553 0  0.708121 0.403702 0  0.715453 0.38144 0  0.732406 0.359166 0  0.7453650000000001 0.337089 0  0.72906 0.317581 0  0.629879 0.317522 0  0.59293 0.321884 0  0.568003 0.326991 0  0.55202 0.327775 0  0.546493 0.327054 0  0.542241 0.326499 0  1 0.9 0  1 0.8 0  1 0.7 0  1 0.6 0  1 0.5 0  1 0.4 0  1 0.3 0  1 0.2 0  1 0.1 0  0.9 0 0  0.8 0 0  0.7 0 0  0.6 0 0  0.5 0 0  0.4 0 0  0.3 0 0  0.2 0 0  0.1 0 0  0.1 1 0  0.2 1 0  0.3 1 0  0.4 1 0  0.5 1 0  0.6 1 0  0.7 1 0  0.8 1 0  0.9 1 0  0 0.1 0  0 0.2 0  0 0.3 0  0 0.4 0  0 0.5 0  0 0.6 0  0 0.7 0  0 0.8 0  0 0.9 0  0.535686 0.5031910000000001 0  0.753987 0.733359 0  0.167145 0.741436 0  0.173378 0.257204 0  0.733497 0.159862 0  0.554096 0.15788 0  0.849187 0.479053 0  0.488793 0.838452 0  0.138507 0.5592 0  0.30686 0.154944 0  0.348904 0.890523 0  0.058006 0.065099 0  0.06984899999999999 0.937917 0  0.93633 0.939704 0  0.934625 0.053613 0  0.343397 0.333452 0  0.473272 0.639943 0  0.433266 0.638072 0  0.415174 0.58269 0  0.533435 0.545042 0  0.390848 0.340652 0  0.53655 0.320242 0  0.127966 0.393775 0  0.83861 0.850455 0  0.635242 0.8551299999999999 0  0.852158 0.633441 0  0.653427 0.626848 0  0.861226 0.24292 0  0.166128 0.12976 0  0.216875 0.8698709999999999 0  0.458305 0.11179 0  0.84446 0.101633 0  0.202024 0.642528 0  0.644825 0.115855 0  0.671342 0.218358 0  0.251354 0.286186 0  0.262388 0.75153 0  0.063044 0.751571 0  0.068189 0.242962 0  0.435781 0.9053949999999999 0  0.934144 0.451133 0  0.568393 0.237622 0  0.814984 0.395506 0  0.752951 0.517227 0  0.456254 0.780699 0  0.073352 0.531116 0  0.337731 0.206071 0  0.363213 0.960371 0  0.330742 0.363592 0  0.516613 0.55705 0  0.369057 0.332992 0  0.500926 0.617309 0  0.498004 0.665534 0  0.412142 0.61178 0  0.454233 0.6366039999999999 0  0.422782 0.567496 0  0.541193 0.5214800000000001 0  0.439761 0.65557 0  0.5163 0.533672 0  0.414775 0.64562 0  0.40073 0.576135 0  0.430362 0.5880339999999999 0  0.385432 0.351492 0  0.400298 0.335397 0  0.398325 0.348194 0  0.528702 0.314885 0  0.540814 0.322334 0  0.534477 0.322953 0  0.619095 0.743583 0  0.885162 0.737972 0  0.08076 0.668849 0  0.90734 0.36634 0  0.09468699999999999 0.868937 0  0.759838 0.912152 0  0.901518 0.540898 0  0.747285 0.607479 0  0.229182 0.071641 0  0.06915399999999999 0.450091 0  0.244775 0.203309 0  0.076534 0.331755 0  0.897847 0.167826 0  0.578909 0.911415 0  0.07713299999999999 0.146341 0  0.477215 0.203448 0  0.922631 0.869341 0  0.517415 0.074785 0  0.297026 0.827793 0  0.7832710000000001 0.246505 0  0.74519 0.061079 0  0.36033 0.069068 0  0.210313 0.475228 0  0.859426 0.928758 0  0.5745479999999999 0.609182 0  0.243069 0.383398 0  0.283099 0.934598 0  0.417416 0.843141 0  0.643942 0.553164 0  0.112687 0.079336 0  0.281357 0.658386 0  0.765043 0.436177 0  0.611361 0.198486 0  0.234496 0.58911 0  0.206479 0.702638 0  0.679608 0.155818 0  0.62682 0.259978 0  0.690538 0.264164 0  0.448938 0.956308 0  0.808154 0.328403 0  0.379583 0.91913 0  0.308083 0.297769 0  0.312358 0.730249 0  0.563101 0.278576 0  0.435597 0.746198 0  0.385475 0.225229 0  0.572248 0.518034 0  0.357864 0.35422 0  0.497647 0.641694 0  0.458101 0.655768 0  0.360474 0.310727 0  0.467038 0.620139 0  0.47798 0.659909 0  0.41102 0.628072 0  0.48324 0.609015 0  0.427544 0.617941 0  0.388633 0.328253 0  0.405336 0.599404 0  0.408351 0.565178 0  0.42395 0.600985 0  0.431562 0.576523 0  0.424905 0.6551979999999999 0  0.398064 0.58782 0  0.427739 0.557934 0  0.5192909999999999 0.303443 0  0.53142 0.320293 0  0.5449000000000001 0.323642 0  0.537166 0.323513 0  0.153974 0.920841 0  0.9181859999999999 0.67343 0  0.759946 0.820588 0  0.5375259999999999 0.783091 0  0.816532 0.545843 0  0.813991 0.178083 0  0.836774 0.702023 0  0.149815 0.318856 0  0.662287 0.923338 0  0.680146 0.791192 0  0.708961 0.663172 0  0.9372779999999999 0.287318 0  0.574622 0.6881660000000001 0  0.5894740000000001 0.076262 0  0.502822 0.926683 0  0.222269 0.811068 0  0.380457 0.164786 0  0.15321 0.684154 0  0.458063 0.051413 0  0.161702 0.056026 0  0.199351 0.198818 0  0.298946 0.09553200000000001 0  0.902465 0.795949 0  0.121139 0.791477 0  0.906269 0.112287 0  0.056109 0.822332 0  0.512172 0.13237 0  0.940964 0.741805 0  0.888887 0.408777 0  0.354543 0.825964 0  0.808736 0.068638 0  0.068507 0.394071 0  0.719105 0.563843 0  0.247287 0.149664 0  0.293062 0.237128 0  0.240524 0.434997 0  0.141255 0.623289 0  0.945202 0.160621 0  0.502914 0.247629 0  0.144669 0.480811 0  0.665025 0.060817 0  0.728047 0.224344 0  0.861995 0.313312 0  0.200068 0.534235 0  0.253262 0.965623 0  0.893804 0.49307 0  0.604391 0.572456 0  0.947088 0.345347 0  0.439372 0.227307 0  0.629847 0.159823 0  0.273405 0.880181 0  0.302744 0.776823 0  0.781502 0.295365 0  0.275342 0.349602 0  0.7283849999999999 0.472798 0  0.229136 0.246478 0  0.807794 0.480346 0  0.709476 0.112786 0  0.275506 0.694991 0  0.771674 0.394419 0  0.449715 0.861802 0  0.419159 0.799696 0  0.674851 0.503139 0  0.280443 0.61016 0  0.572443 0.192538 0  0.393113 0.87525 0  0.405555 0.948428 0  0.330942 0.934103 0  0.540509 0.597101 0  0.312763 0.6689310000000001 0  0.254368 0.540179 0  0.595265 0.25915 0  0.606679 0.234099 0  0.657131 0.279138 0  0.722458 0.279478 0  0.333 0.308056 0  0.351529 0.246142 0  0.455714 0.7257940000000001 0  0.585239 0.295143 0  0.340062 0.72492 0  0.545593 0.293773 0  0.555449 0.545426 0  0.414311 0.737314 0  0.590854 0.502323 0  0.350507 0.368444 0  0.484423 0.625665 0  0.483899 0.674542 0  0.378137 0.317274 0  0.446416 0.646404 0  0.373532 0.347654 0  0.446876 0.619769 0  0.466106 0.666068 0  0.437545 0.609254 0  0.434988 0.565726 0  0.41462 0.656829 0  0.418803 0.556961 0  0.398425 0.327446 0  0.517803 0.310421 0  0.549516 0.322918 0  0.57701 0.842889 0  0.8291269999999999 0.773906 0  0.643235 0.684732 0  0.134281 0.207734 0  0.865997 0.055966 0  0.680959 0.723345 0  0.165229 0.8415550000000001 0  0.54558 0.959672 0  0.783726 0.656439 0  0.913315 0.595533 0  0.699439 0.860667 0  0.785839 0.125076 0  0.551673 0.037713 0  0.9200970000000001 0.223214 0  0.206406 0.299726 0  0.087064 0.596401 0  0.935644 0.394252 0  0.964557 0.252582 0  0.230124 0.928346 0  0.120579 0.271764 0  0.8572149999999999 0.524082 0  0.7670979999999999 0.5551469999999999 0  0.936094 0.507131 0  0.804064 0.59585 0  0.700565 0.608273 0  0.429773 0.174231 0  0.117746 0.727333 0  0.5389620000000001 0.730231 0  0.862761 0.359173 0  0.821444 0.284046 0  0.193552 0.35818 0  0.234923 0.505555 0  0.193209 0.421217 0  0.220144 0.755896 0  0.594015 0.131642 0  0.283813 0.195855 0  0.517519 0.213961 0  0.553509 0.639116 0  0.280391 0.378018 0  0.852183 0.436817 0  0.746983 0.197173 0  0.821806 0.221318 0  0.449853 0.828453 0  0.883758 0.453926 0  0.183484 0.589542 0  0.348384 0.129314 0  0.255254 0.838525 0  0.504849 0.798516 0  0.320344 0.863432 0  0.611669 0.525425 0  0.265864 0.804962 0  0.72056 0.521442 0  0.613372 0.6101220000000001 0  0.481262 0.881068 0  0.655778 0.191988 0  0.701921 0.196918 0  0.5658260000000001 0.5731810000000001 0  0.46914 0.240927 0  0.343219 0.173284 0  0.888786 0.278502 0  0.244113 0.6750930000000001 0  0.739546 0.417914 0  0.784023 0.355942 0  0.326805 0.265549 0  0.248616 0.6
[...]
<PointData  Vectors="f_223-0"> 
<DataArray  type="Float64"  Name="f_223-0"  NumberOfComponents="3" format="ascii">0.0000000000000000e+00 0.0000000000000000e+00 0.0000000000000000e+00  -3.3612537086971901e-14 3.4208405576212698e-14 0.0000000000000000e+00  1.7573993618938381e-14 1.0234325810756138e-13 0.0000000000000000e+00  -5.8737204226602588e-14 1.2663221720289370e-13 0.0000000000000000e+00  -2.0118303007920421e-13 -7.5046842208305665e-13 0.0000000000000000e+00  -9.8492976961116824e-14 3.3289973523070311e-14 0.0000000000000000e+00  1.8948744718367979e-14 3.4259259882685816e-15 0.0000000000000000e+00  -2.3077739148711432e-15 -9.8870783658436386e-16 0.0000000000000000e+00  -2.1693403727099942e-16 0.0000000000000000e+00 0.0000000000000000e+00  -8.8672822722973639e-16 -1.0714335292418316e-15 0.0000000000000000e+00  7.4536780350552581e-16 2.6904941331873882e-18 0.0000000000000000e+00  1.7375356440226351e-16 0.0000000000000000e+00 0.0000000000000000e+00  2.0063311834901896e-17 -1.2835219098886291e-16 0.0000000000000000e+00  5.7567519171293760e-16 0.0000000000000000e+00 0.0000000000000000e+00  -2.8453258031282404e-17 0.0000000000000000e+00 0.0000000000000000e+00  3.1633927451734368e-15 -5.1465865722028607e-15 0.0000000000000000e+00  9.6086222320860795e-15 0.0000000000000000e+00 0.0000000000000000e+00  3.2390729491359664e-15 -9.2937084490866446e-15 0.0000000000000000e+00  -1.5120962272979548e-14 3.7054307946098805e-15 0.0000000000000000e+00  3.0191582317943295e-14 3.6254444496225586e-14 0.0000000000000000e+00  0.0000000000000000e+00 0.0000000000000000e+00 0.0000000000000000e+00  8.5190710679759906e-17 -3.5230968636619774e-16 0.0000000000000000e+00  -5.0718259602366632e-15 0.0000000000000000e+00 0.0000000000000000e+00  0.0000000000000000e+00 8.9894274823849559e-14 0.0000000000000000e+00  8.5604971596200553e-15 0.0000000000000000e+00 0.0000000000000000e+00  4.1650106415981931e-10 -1.3758969208573184e-09 0.0000000000000000e+00  0.0000000000000000e+00 -2.5257256383184678e-14 0.0000000000000000e+00  -2.2439567010332320e-15 0.0000000000000000e+00 0.0000000000000000e+00  -2.2962576650204626e-15 2.1499041576583076e-15 0.0000000000000000e+00  1.4940864190450696e-14 2.1927494229465432e-14 0.0000000000000000e+00  -4.6100298438862930e-15 -3.9379582359153241e-14 0.0000000000000000e+00  2.1848960689298642e-14 2.1607869977796438e-14 0.0000000000000000e+00  -2.5267535402182297e-15 0.0000000000000000e+00 0.0000000000000000e+00  0.0000000000000000e+00 0.0000000000000000e+00 0.0000000000000000e+00  -7.9257573373613551e-16 0.0000000000000000e+00 0.0000000000000000e+00  4.6555191852761774e-16 4.3177176130205929e-16 0.0000000000000000e+00  2.8331219421271234e-15 1.7824914867605568e-14 0.0000000000000000e+00  -2.5805161093211903e-18 -5.6726454858017564e-16 0.0000000000000000e+00  -1.1776527741923417e-14 -9.8720526971642323e-16 0.0000000000000000e+00  8.1034160149661920e-15 0.0000000000000000e+00 0.0000000000000000e+00  3.1958510279468779e-16 -1.6572377256090575e-15 0.0000000000000000e+00  -1.7892774610453999e-15 0.0000000000000000e+00 0.0000000000000000e+00  -2.2396124504709950e-15 -3.7925260005772435e-15 0.0000000000000000e+00  -1.1208702902607070e-15 0.0000000000000000e+00 0.0000000000000000e+00  3.3865754988608327e-15 6.2429315949526750e-15 0.0000000000000000e+00  -3.5109751116459033e-15 -5.9699242092057652e-15 0.0000000000000000e+00  1.1078260875542401e-15 -5.0806454365448636e-15 0.0000000000000000e+00  5.5309935045149946e-15 -4.7518301323582607e-15 0.0000000000000000e+00  -1.2548792149474166e-14 1.0042326499257191e-14 0.0000000000000000e+00  6.4081380521423472e-13 3.0092910076977250e-14 0.0000000000000000e+00  0.0000000000000000e+00 0.0000000000000000e+00 0.0000000000000000e+00  -7.7042408393547901e-13 5.8117531468771712e-14 0.0000000000000000e+00  -1.5212467638686177e-15 0.0000000000000000e+00 0.0000000000000000e+00  3.1773842102608522e-14 -8.0637536252418879e-14 0.0000000000000000e+00  -2.1719252554374541e-14 9.0536281256919535e-17 0.0000000000000000e+00  4.3969699187361636e-16 -2.9278178009273545e-16 0.0000000000000000e+00  -8.7337517223701161e-16 0.0000000000000000e+00 0.0000000000000000e+00  3.3376856335758781e-14 -8.7368157445927435e-16 0.0000000000000000e+00  0.0000000000000000e+00 0.0000000000000000e+00 0.0000000000000000e+00  -4.0295267627593420e-15 -3.5810255432463833e-15 0.0000000000000000e+00  0.0000000000000000e+00 0.0000000000000000e+00 0.0000000000000000e+00  2.5894351904646362e-10 1.7069262284500593e-09 0.0000000000000000e+00  -5.4297652724259107e-16 -9.0488452628085077e-16 0.0000000000000000e+00  0.0000000000000000e+00 0.0000000000000000e+00 0.0000000000000000e+00  -1.1204843005929708e-15 -2.2408486207299314e-15 0.0000000000000000e+00  -5.5645870220480273e-10 6.8726649074557420e-10 0.0000000000000000e+00  -1.8907495619926882e-15 1.3267569669898843e-15 0.0000000000000000e+00  5.9161786407370139e-15 1.6484349416048996e-14 0.0000000000000000e+00  0.0000000000000000e+00 0.0000000000000000e+00 0.0000000000000000e+00  1.1811417422354664e-14 1.2960168539054745e-14 0.0000000000000000e+00  0.0000000000000000e+00 0.0000000000000000e+00 0.0000000000000000e+00  0.0000000000000000e+00 5.6744641546587076e-15 0.0000000000000000e+00  1.3636044137294455e-14 0.0000000000000000e+00 0.0000000000000000e+00  2.0352955728131920e-14 0.0000000000000000e+00 0.0000000000000000e+00  8.1353843937067502e-15 4.7425655420523061e-15 0.0000000000000000e+00  -8.8028670399572839e-15 2.5365809675599875e-15 0.0000000000000000e+00  5.3581142131731485e-16 -1.3826104906551366e-16 0.0000000000000000e+00  9.9999999999999957e+01 -7.6623466868669496e-14 0.0000000000000000e+00  9.9999999999999929e+01 5.2931208984674785e-14 0.0000000000000000e+00  8.0427848367303925e-15 -7.5453728088338696e-15 0.0000000000000000e+00  9.7173652529531789e-16 6.5528616843977546e-15 0.0000000000000000e+00  2.1991435302314932e-16 1.4660447384632646e-16 0.0000000000000000e+00  2.1915768048772052e-16 5.3389630229272773e-17 0.0000000000000000e+00  3.5094182093083785e-15 -9.9417804179061828e-15 0.0000000000000000e+00  0.0000000000000000e+00 0.0000000000000000e+00 0.0000000000000000e+00  -1.8978870185677032e-17 -1.0623271460180392e-15 0.0000000000000000e+00  -1.1380757136458714e-14 7.5552149453297650e-15 0.0000000000000000e+00  -5.5192333839829230e-15 -1.3617664065646694e-15 0.0000000000000000e+00  5.4868783203881854e-14 -2.8831315068751751e-14 0.0000000000000000e+00  3.4834144756254985e-11 3.5647451662971285e-16 0.0000000000000000e+00  3.5214143698007190e-14 -6.7654601424504947e-15 0.0000000000000000e+00  -7.4071673292240485e-15 4.9276819253910763e-15 0.0000000000000000e+00  -1.8328893559172399e-14 1.8113114353011042e-14 0.0000000000000000e+00  5.0393904454826258e-16 0.0000000000000000e+00 0.0000000000000000e+00  -4.0618607980357123e-16 1.9463234110144284e-16 0.0000000000000000e+00  7.0344281015420479e-16 -1.7753114015476742e-16 0.0000000000000000e+00  5.7983206653782839e-17 1.0570124554248422e-15 0.0000000000000000e+00  0.0000000000000000e+00 0.0000000000000000e+00 0.0000000000000000e+00  -5.7988472932548961e-16 -4.4141869562770473e-15 0.0000000000000000e+00  4.3784817016483292e-16 0.0000000000000000e+00 0.0000000000000000e+00  -5.6423582276888079e-15 1.5755925689320106e-14 0.0000000000000000e+00  -1.7510509010287907e-14 4.2442211713950626e-15 0.0000000000000000e+00  -4.3699491314263892e-14 -3.7694713715374579e-14 0.0000000000000000e+00  6.7973395325461545e-15 5.5437235296625808e-15 0.0000000000000000e+00  4.9259036897110560e-15 4.6894481681182173e-15 0.0000000000000000e+00  4.3789294799227986e-14 -1.1584935063285919e-14 0.0000000000000000e+00  5.8099741341795642e-15 0.0000000000000000e+00 0.0000000000000000e+00  2.5376977248681296e-13 0.0000000000000000e+00 0.0000000000000000e+00  -6.1515748645775981e-16 0.0000000000000000e+00 0.0000000000000000e+00  -1.0880756435274013e-14 -2.3014129596305347e-14 0.0000000000000000e+00  -1.0014550557057615e-15 0.0000000000000000e+00 0.0000000000000000e+00  -8.7559071202390714e-14 -7.1754097774032415e-16 0.0000000000000000e+00  -1.5484789192728291e-15 0.0000000000000000e+00 0.0000000000000000e+00  -1.5053966188522496e-16 -5.0561757503194508e-16 0.0000000000000000e+00  -1.2662035277298645e-14 2.8188048440448136e-15 0.0000000000000000e+00  1.6351220451101680e-14 -1.7499236393134379e-14 0.0000000000000000e+00  -4.5642014226461377e-15 -4.0975267308010456e-15 0.0000000000000000e+00  6.2617688485723607e-15 1.0243380724159035e-14 0.0000000000000000e+00  -1.0990885436788021e-15 2.6045416369709062e-16 0.0000000000000000e+00  2.6366009440679384e-14 6.7209063974318680e-14 0.0000000000000000e+00  1.4273802658065583e-14 -2.8166536540361361e-15 0.0000000000000000e+00  4.6374217414776351e-15 -1.1921717795634396e-14 0.0000000000000000e+00  4.8356006859008596e-16 -1.0114370298023549e-14 0.0000000000000000e+00  1.9643047106344460e-14 -2.4400030669923002e-15 0.0000000000000000e+00  4.0224198245809177e-14 -1.9166772491137851e-14 0.0000000000000000e+00  -2.8371568320010159e-14 0.0000000000000000e+00 0.0000000000000000e+00  -2.3117066570392348e-14 0.0000000000000000e+00 0.0000000000000000e+00  -6.7752387682545737e-15 -6.8607171501155828e-15 0.0000000000000000e+00  -6.1952156229417914e-15 -8.2582001519761525e-16 0.0000000000000000e+00  0.0000000000000000e+00 0.0000000000000000e+00 0.0000000000000000e+00  6.3785993590118325e-16 0.0000000000000000e+00 0.0000000000000000e+00  1.0000000000000023e+02 6.1681399161178987e-13 0.0000000000000000e+00  9.9999999999999915e+01 1.0317683500899462e-13 0.0000000000000000e+00  1.0000000000000000e+02 -5.3416328101202088e-14 0.0000000000000000e+00  1.0000000000000068e+02 0.0000000000000000e+00 0.0000000000000000e+00  9.9999999999999872e+01 0.0000000000000000e+00 0.0000000000000000e+00  9.9999999999999787e+01 -2.7013109379996976e-13 0.0000000000000000e+00  9.9999999999999844e+01 -2.0946292016291871e-13 0.0000000000000000e+00  1.0000000000000024e+02 0.0000000000000000e+00 0.0000000000000000e+00  1.0000000000000007e+02 3.8000135451934932e-14 0.0000000000000000e+00  -5.6089018025919873e-13 3.2651019236628865e-13 0.0000000000000000e+00  -2.2288748707120115e-13 -1.6341596534191863e-13 0.0000000000000000e+00  -4.1647020376810308e-14 2.6373519099593777e-14 0.0000000000000000e+00  2.5128315040370493e-12 7.3106074625062691e-13 0.0000000000000000e+00  7.9016814564317044e-15 0.0000000000000000e+00 0.0000000000000000e+00  -2.5013773431679543e-13 -1.6995229744551752e-13 0.0000000000000000e+00  -1.4156540989836788e-13 0.0000000000000000e+00 0.0000000000000000e+00  -2.2180495291346801e-14 0.0000000000000000e+00 0.0000000000000000e+00  2.1950565274636184e-14 -4.9371136417235502e-15 0.0000000000000000e+00  -7.5831438622729636e-15 1.3087518277859635e-14 0.0000000000000000e+00  1.4920578286429382e-13 1.8430232000146780e-13 0.0000000000000000e+00  -8.6193550333520232e-14 0.0000000000000000e+00 0.0000000000000000e+00  0.0000000000000000e+00 2.5693518621002538e-13 0.0000000000000000e+00  -9.1357252124948470e-13 -1.0389889049517279e-12 0.0000000000000000e+00  -1.4111922594465388e-13 -1.0642748326598729e-13 0.0000000000000000e+00  1.8337223861408526e-14 -5.9708860313211942e-13 0.0000000000000000e+00  -1.0029728247182964e-14 1.5663758866594371e-13 0.0000000000000000e+00  0.0000000000000000e+00 0.0000000000000000e+00 0.0000000000000000e+00  8.6113444300872274e+01 -1.5842196920019777e+01 0.0000000000000000e+00  1.2587391604925872e+02 -3.2974429269638620e+01 0.0000000000000000e+00  1.1849148332373920e+02 -3.4948946138060862e+01 0.0000000000000000e+00  9.6460807459478787e+01 -1.9685917416554400e+01 0.0000000000000000e+00  8.7737609194913659e+01 5.4655943949828449e+00 0.0000000000000000e+00  1.0143180929075422e+02 3.1406012504614537e+01 0.0000000000000000e+00  1.2926967235734531e+02 4.7893119328016972e+01 0.0000000000000000e+00  1.4151672234796396e+02 4.4595687899675717e+01 0.0000000000000000e+00  9.8578520378332470e+01 2.2062813287890631e+01 0.0000000000000000e+00  -5.4042148140688683e-16 -1.8683639223250247e-15 0.0000000000000000e+00  1.3511010662988267e+02 -4.3697134136856263e+01 0.0000000000000000e+00  1.3322337736037065e+02 8.7385008810100331e+01 0.0000000000000000e+00  1.2568888217010841e+02 -7.0483941289587236e+01 0.0000000000000000e+00  2.0944315538030011e+02 2.7721479613149956e+01 0.0000000000000000e+00  2.2474489599098470e+02 1.8837722531764168e+01 0.0000000000000000e+00  6.1704374196393431e+01 3.2058974972313234e+00 0.0000000000000000e+00  2.5871685170990781e+02 -8.0476378577202539e+01 0.0000000000000000e+00  5.1238974814234012e+01 2.5899139465921518e+01 0.0000000000000000e+00  2.2531613497651389e+02 -5.1761067600122530e+01 0.0000000000000000e+00  3.0193181358487942e+02 2.5213549260446335e+01 0.0000000000000000e+00  7.0509955373003123e+01 -8.8081778326306246e+00 0.0000000000000000e+00  8.3320876697061593e+01 1.1551829156256918e+01 0.0000000000000000e+00  1.0702916892314011e+02 3.2454770913023921e+01 0.0000000000000000e+00  1.0797518979626182e+02 -2.5830532605060647e+01 0.0000000000000000e+00  3.7367360455494919e-01 -5.5605333187477584e+00 0.0000000000000000e+00  -1.8225333645659803e-01 -9.4863189252110125e-01 0.0000000000000000e+00  -1.9526679029598697e-02 3.6383018287970015e-01 0.0000000000000000e+00  3.6596125489369237e-03 -7.5692092376511302e-04 0.0000000000000000e+00  3.2909885978265274e+00 -3.8387015098036557e+00 0.0000000000000000e+00  -2.2697645758361759e-01 9.2158275047682059e-01 0.0000000000000000e+00  5.2357559665626168e+00 1.2909255736599752e+00 0.0000000000000000e+00  6.5694084716140381e+01 -3.1675513134962550e+01 0.0000000000000000e+00  1.2996034632085340e+02 5.0252156472673750e+00 0.0000000000000000e+00  1.8433241481068916e+02 -5.3756938757819121e+01 0.0000000000000000e+00  1.0055422420561916e+02 -2.3917339839026383e+01 0.0000000000000000e+00  7.0707267838776474e+01 -5.2357959619455862e+01 0.0000000000000000e+00  1.3602450375473703e+02 6.9222559940561084e+01 0.0000000000000000e+00  1.5053876068508458e+02 -3.7706287311637027e+01 0.0000000000000000e+00  2.1370559402385348e+02 6.9877886891954446e+01 0.0000000000000000e+00  2.2926200576042586e+02 1.0073778617407202e+01 0.0000000000000000e+00  1.4912289664165860e+02 8.4260648558679101e+00 0.0000000000000000e+00  5.6119114972892959e+01 5.7291982387369998e+01 0.0000000000000000e+00  2.0391862630074127e+02 1.0754631939685025e+01 0.0000000000000000e+00  1.9241714821970101e+02 1.5739686795881447e+01 0.0000000000000000e+00  8.5422902520959667e+01 -7.9059276427513737e+01 0.0000000000000000e+00  1.1529033674889790e+02 1.1067320232360748e+02 0.0000000000000000e+00  1.4219683386613050e+02 5.6785828637303325e+01 0.0000000000000000e+00  1.2936971198845009e+02 -4.3258644764527084e+01 0.0000000000000000e+00  2.7472341026378291e+02 -2.8646946669846677e+01 0.0000000000000000e+00  8.8501053717252958e+01 1.6825107928124332e+01 0.0000000000000000e+00  1.5255983249832437e+02 1.4762419935279715e+01 0.0000000000000000e+00  3.2062232498563596e+01 3.2273916833958985e+01 0.0000000000000000e+00  4.9769365440033816e+01 -2.5347297626887979e+01 0.0000000000000000e+00  1.7133805247723978e+02 -7.6953661345253664e+01 0.0000000000000000e+00  6.8437317731719702e+01 1.4859247748779907e+01 0.0000000000000000e+00  2.0698140046328120e+02 -5.6361485590493849e+01 0.0000000000000000e+00  1.6162714777957936e+02 2.4784453583029404e+00 0.0000000000000000e+00  1.5130288211757124e+00 -5.4278937704009609e+00 0.0000000000000000e+00  1.8522219072879447e+00 -3.0926779172932113e+00 0.0000000000000000e+00  -4.4600505752259584e-01 1.9203518947840830e+00 0.0000000000000000e+00  2.0280708705494499e+00 -7.7756279467586626e+00 0.0000000000000000e+00  3.4606087830967680e+00 -1.8022724177099533e+01 0.0000000000000000e+00  -1.9689321077564340e-02 1.0064298801128833e-02 0.0000000000000000e+00  -2.5714743924469441e-01 7.1690422352589067e-01 0.0000000000000000e+00  1.7519614062540267e-03 9.3928413570331922e-04 0.0000000000000000e+00  2.0085946763432005e+00 -1.5707296321352979e+00 0.0000000000000000e+00  4.1098374983076086e-01 3.1173791482886992e-01 0.0000000000000000e+00  6.7098887434234222e-01 -8.4367088142981417e-01 0.0000000000000000e+00  3.5126365465785132e-02 8.9688283927922538e-02 0.0000000000000000e+00  2.4750225782515993e-03 -1.5413661824844446e-03 0.0000000000000000e+00  2.5903525221233270e-03 7.7307263004092732e-03 0.0000000000000000e+00  -7.3845174958327586e-01 7.5790485973426347e-01 0.0000000000000000e+00  5.6333284412460466e-02 3.7197897432840388e-01 0.0000000000000000e+00  -1.7496495628207070e-01 2.8958448176929613e-01 0.0000000000000000e+00  8.9454065584970479e+00 3.2278199086020010e+00 0.0000000000000000e+00  4.1339710026306218e+00 6.7663087285417944e-01 0.0000000000000000e+00  1.9495896139351092e+00 5.8793123484722731e-01 0.0000000000000000e+00  1.4522577025786455e+02 -8.9617268423074620e+01 0.0000000000000000e+00  1.1558370323002953e+02 -7.2475661760106247e+00 0.0000000000000000e+00  1.0748613040531878e+02 5.2891637886067777e+01 0.0000000000000000e+00  8.2452760748712365e+01 5.1974029636912412e+01 0.0000000000000000e+00  1.4855213584306887e+02 3.9352394273744970e+01 0.0000000000000000e+00  1.0688301881855877e+02 -7.1730414196328010e+00 0.0000000000000000e+00  8.8439095950964827e+01 -6.8818312421558936e+00 0.0000000000000000e+00  8.4558539306683116e+01 -4.0765389004056338e+01 0.0000000000000000e+00  1.3153335566262712e+02 -1.7412623847516205e+01 0.0000000000000000e+00  7.0503035592245467e+01 -9.8677717559274871e+00 0.0000000000000000e+00  1.7366906245972768e+02 -8.0685140194606859e+01 0.0000000000000000e+00  1.0055569964325946e+02 -3.9175580693109040e+01 0.0000000000000000e+00  1.3853616058749259e+02 2.3612374573511300e+01 0.0000000000000000e+00  1.7846605378308061e+02 -3.2647893724480333e+01 0.0000000000000000e+00  1.2774666878364397e+02 -2.9794491671536157e+01 0.0000000000000000e+00  2.0062971224338017e+02 2.9136082336225531e+01 0.0000000000000000e+00  1.1451768726051337e+02 2.7002604453728789e+01 0.0000000000000000e+00  1.7650123321666240e+02 7.1781502023841615e+00 0.0000000000000000e+00  2.5180215178130319e+02 1.0482710982332509e+02 0.0000000000000000e+00  1.6184725922698772e+02 6.7993846560203181e+01 0.0000000000000000e+00  1.2366249956586762e+02 5.9837722221670111e+00 0.0000000000000000e+00  1.7385193031238668e+02 -7.4863996445889169e+00 0.0000000000000000e+00  1.8758543618657519e+01 -6.2223147907504224e+00 0.0000000000000000e+00  9.4091501494156546e+01 1.0690340147911073e+01 0.0000000000000000e+00  2.7753223463161167e+01 -3.3887351197557123e+01 0.0000000000000000e+00  2.8364626087641589e+01 -3.4415656013470340e+01 0.0000000000000000e+00  1.9829770064626626e+02 2.4223597529294313e+01 0.0000000000000000e+00  2.9935450481520695e+02 -4.9944098657939200e+01 0.0000000000000000e+00  3.7799618728395814e+01 -2.4946982981117497e+01 0.0000000000000000e+00  9.7510398823995999e+01 -1.3711938749674593e+01 0.0000000000000000e+00  2.4897195302616783e+01 4.0793370077135791e+01 0.0000000000000000e+00  1.9021975030020119e+01 -4.6373985460154490e+00 0.0000000000000000e+00  2.0354210991098833e+02 1.3447557131552355e+01 0.0000000000000000e+00  2.3327486616595333e+01 3.0886332479872269e+01 0.0000000000000000e+00  9.1086579372408380e+01 8.4054164317355941e+01 0.0000000000000000e+00  2.1736175779678939e+02 1.7424766637989816e+01 0.0000000000000000e+00  1.2864924972637834e+02 3.7265993292371711e+00 0.0000000000000000e+00  1.3391364777181013e+02 1.2147016380408928e+01 0.0000000000000000e+00  1.6210375164504731e+02 -8.7766002454094938e+00 0.0000000000000000e+00  5.8645941543691578e+01 7.2886225891401722e+01 0.0000000000000000e+00  2.6787958181122497e+02 5.0914668418912135e-01 0.0000000000000000e+00  3.4617527838301264e+01 -5.5612516547878890e+01 0.0000000000000000e+00  4.0572993460693972e+01 7.1578551840392763e+01 0.0000000000000000e+00  8.0510029267748408e+01 6.9170133837114323e+00 0.0000000000000000e+00  6.3451995339375195e+01 -3.5640331049903779e+01 0.0000000000000000e+00  1.7491803324391901e+02 -7.1733718364227572e+00 0.0000000000000000e+00  6.0022079858490605e+00 -3.538