<?xml version="1.0"?>
<VTKFile type="UnstructuredGrid"  version="0.1"  >
<UnstructuredGrid>
<Piece  NumberOfPoints="2868" NumberOfCells="5400">
<Points>
<DataArray  type="Float64"  NumberOfComponents="3"  format="ascii">0.534923 0.326073 0  0.510642 0.314196 0  0.466125 0.293082 0  0.436448 0.281205 0  0.409468 0.275927 0  0.368998 0.270648 0  0.35281 0.275927 0  0.381139 0.302319 0  0.405421 0.326073 0  0.410817 0.33531 0  0.408119 0.349826 0  0.400025 0.357744 0  0.375743 0.368301 0  0.329878 0.392055 0  0.297502 0.432963 0  0.282663 0.476511 0  0.285361 0.524018 0  0.298851 0.572845 0  0.317737 0.6045160000000001 0  0.337972 0.6361869999999999 0  0.360904 0.674457 0  0.368998 0.69953 0  0.359555 0.7219640000000001 0  0.360904 0.757594 0  0.370347 0.766831 0  0.381139 0.762872 0  0.390582 0.741758 0  0.404072 0.720644 0  0.424307 0.707448 0  0.447239 0.702169 0  0.480964 0.704808 0  0.479615 0.6889729999999999 0  0.468823 0.675776 0  0.447239 0.6691780000000001 0  0.428354 0.6691780000000001 0  0.410817 0.6639 0  0.404072 0.653343 0  0.395978 0.628269 0  0.387884 0.59132 0  0.389233 0.576804 0  0.397327 0.557009 0  0.410817 0.547772 0  0.424307 0.546452 0  0.437797 0.55305 0  0.44589 0.5662469999999999 0  0.441843 0.582082 0  0.439145 0.5979179999999999 0  0.449937 0.609795 0  0.468823 0.603196 0  0.479615 0.59 0  0.489058 0.570205 0  0.494454 0.546452 0  0.505246 0.522699 0  0.522783 0.509502 0  0.55246 0.494986 0  0.586185 0.484429 0  0.615863 0.48047 0  0.64554 0.473872 0  0.6671240000000001 0.461995 0  0.683312 0.451438 0  0.696802 0.435603 0  0.703547 0.417128 0  0.7116400000000001 0.393374 0  0.7183850000000001 0.37226 0  0.7251300000000001 0.364342 0  0.739969 0.353785 0  0.7453650000000001 0.344548 0  0.7453650000000001 0.327393 0  0.737271 0.318155 0  0.7183850000000001 0.316835 0  0.7008490000000001 0.319475 0  0.677916 0.318155 0  0.650936 0.316835 0  0.610467 0.318155 0  0.57944 0.324753 0  0.559205 0.328712 0  0.5389699999999999 0.326073 0  1 1 0  1 0 0  0 0 0  0 1 0  0.532238 0.32476 0  0.528748 0.323052 0  0.52421 0.320833 0  0.518311 0.317947 0  0.503447 0.310783 0  0.494093 0.306347 0  0.481933 0.30058 0  0.452151 0.28749 0  0.392327 0.273691 0  0.379141 0.271971 0  0.360474 0.283066 0  0.369797 0.291752 0  0.391424 0.31238 0  0.399335 0.32012 0  0.40958 0.341964 0  0.393939 0.36039 0  0.386028 0.36383 0  0.364248 0.374254 0  0.349304 0.381994 0  0.315801 0.409841 0  0.292986 0.551616 0  0.350934 0.657818 0  0.360127 0.737055 0  0.360566 0.748664 0  0.385245 0.753692 0  0.396447 0.732578 0  0.466301 0.703661 0  0.459439 0.672908 0  0.418442 0.666195 0  0.400553 0.642441 0  0.39255 0.612619 0  0.389913 0.60058 0  0.392752 0.568197 0  0.444131 0.573132 0  0.458149 0.606926 0  0.5005540000000001 0.533026 0  0.571522 0.489019 0  0.632637 0.476741 0  0.689177 0.444553 0  0.708121 0.403702 0  0.715453 0.38144 0  0.732406 0.359166 0  0.7453650000000001 0.337089 0  0.72906 0.317581 0  0.629879 0.317522 0  0.59293 0.321884 0  0.568003 0.326991 0  0.55202 0.327775 0  0.546493 0.327054 0  0.542241 0.326499 0  1 0.9 0  1 0.8 0  1 0.7 0  1 0.6 0  1 0.5 0  1 0.4 0  1 0.3 0  1 0.2 0  1 0.1 0  0.9 0 0  0.8 0 0  0.7 0 0  0.6 0 0  0.5 0 0  0.4 0 0  0.3 0 0  0.2 0 0  0.1 0 0  0.1 1 0  0.2 1 0  0.3 1 0  0.4 1 0  0.5 1 0  0.6 1 0  0.7 1 0  0.8 1 0  0.9 1 0  0 0.1 0  0 0.2 0  0 0.3 0  0 0.4 0  0 0.5 0  0 0.6 0  0 0.7 0  0 0.8 0  0 0.9 0  0.535686 0.5031910000000001 0  0.753987 0.733359 0  0.167145 0.741436 0  0.173378 0.257204 0  0.733497 0.159862 0  0.554096 0.15788 0  0.849187 0.479053 0  0.488793 0.838452 0  0.138507 0.5592 0  0.30686 0.154944 0  0.348904 0.890523 0  0.058006 0.065099 0  0.06984899999999999 0.937917 0  0.93633 0.939704 0  0.934625 0.053613 0  0.343397 0.333452 0  0.473272 0.639943 0  0.433266 0.638072 0  0.415174 0.58269 0  0.533435 0.545042 0  0.390848 0.340652 0  0.53655 0.320242 0  0.127966 0.393775 0  0.83861 0.850455 0  0.635242 0.8551299999999999 0  0.852158 0.633441 0  0.653427 0.626848 0  0.861226 0.24292 0  0.166128 0.12976 0  0.216875 0.8698709999999999 0  0.458305 0.11179 0  0.84446 0.101633 0  0.202024 0.642528 0  0.644825 0.115855 0  0.671342 0.218358 0  0.251354 0.286186 0  0.262388 0.75153 0  0.063044 0.751571 0  0.068189 0.242962 0  0.435781 0.9053949999999999 0  0.934144 0.451133 0  0.568393 0.237622 0  0.814984 0.395506 0  0.752951 0.517227 0  0.456254 0.780699 0  0.073352 0.531116 0  0.337731 0.206071 0  0.363213 0.960371 0  0.330742 0.363592 0  0.516613 0.55705 0  0.369057 0.332992 0  0.500926 0.617309 0  0.498004 0.665534 0  0.412142 0.61178 0  0.454233 0.6366039999999999 0  0.422782 0.567496 0  0.541193 0.5214800000000001 0  0.439761 0.65557 0  0.5163 0.533672 0  0.414775 0.64562 0  0.40073 0.576135 0  0.430362 0.5880339999999999 0  0.385432 0.351492 0  0.400298 0.335397 0  0.398325 0.348194 0  0.528702 0.314885 0  0.540814 0.322334 0  0.534477 0.322953 0  0.619095 0.743583 0  0.885162 0.737972 0  0.08076 0.668849 0  0.90734 0.36634 0  0.09468699999999999 0.868937 0  0.759838 0.912152 0  0.901518 0.540898 0  0.747285 0.607479 0  0.229182 0.071641 0  0.06915399999999999 0.450091 0  0.244775 0.203309 0  0.076534 0.331755 0  0.897847 0.167826 0  0.578909 0.911415 0  0.07713299999999999 0.146341 0  0.477215 0.203448 0  0.922631 0.869341 0  0.517415 0.074785 0  0.297026 0.827793 0  0.7832710000000001 0.246505 0  0.74519 0.061079 0  0.36033 0.069068 0  0.210313 0.475228 0  0.859426 0.928758 0  0.5745479999999999 0.609182 0  0.243069 0.383398 0  0.283099 0.934598 0  0.417416 0.843141 0  0.643942 0.553164 0  0.112687 0.079336 0  0.281357 0.658386 0  0.765043 0.436177 0  0.611361 0.198486 0  0.234496 0.58911 0  0.206479 0.702638 0  0.679608 0.155818 0  0.62682 0.259978 0  0.690538 0.264164 0  0.448938 0.956308 0  0.808154 0.328403 0  0.379583 0.91913 0  0.308083 0.297769 0  0.312358 0.730249 0  0.563101 0.278576 0  0.435597 0.746198 0  0.385475 0.225229 0  0.572248 0.518034 0  0.357864 0.35422 0  0.497647 0.641694 0  0.458101 0.655768 0  0.360474 0.310727 0  0.467038 0.620139 0  0.47798 0.659909 0  0.41102 0.628072 0  0.48324 0.609015 0  0.427544 0.617941 0  0.388633 0.328253 0  0.405336 0.599404 0  0.408351 0.565178 0  0.42395 0.600985 0  0.431562 0.576523 0  0.424905 0.6551979999999999 0  0.398064 0.58782 0  0.427739 0.557934 0  0.5192909999999999 0.303443 0  0.53142 0.320293 0  0.5449000000000001 0.323642 0  0.537166 0.323513 0  0.153974 0.920841 0  0.9181859999999999 0.67343 0  0.759946 0.820588 0  0.5375259999999999 0.783091 0  0.816532 0.545843 0  0.813991 0.178083 0  0.836774 0.702023 0  0.149815 0.318856 0  0.662287 0.923338 0  0.680146 0.791192 0  0.708961 0.663172 0  0.9372779999999999 0.287318 0  0.574622 0.6881660000000001 0  0.5894740000000001 0.076262 0  0.502822 0.926683 0  0.222269 0.811068 0  0.380457 0.164786 0  0.15321 0.684154 0  0.458063 0.051413 0  0.161702 0.056026 0  0.199351 0.198818 0  0.298946 0.09553200000000001 0  0.902465 0.795949 0  0.121139 0.791477 0  0.906269 0.112287 0  0.056109 0.822332 0  0.512172 0.13237 0  0.940964 0.741805 0  0.888887 0.408777 0  0.354543 0.825964 0  0.808736 0.068638 0  0.068507 0.394071 0  0.719105 0.563843 0  0.247287 0.149664 0  0.293062 0.237128 0  0.240524 0.434997 0  0.141255 0.623289 0  0.945202 0.160621 0  0.502914 0.247629 0  0.144669 0.480811 0  0.665025 0.060817 0  0.728047 0.224344 0  0.861995 0.313312 0  0.200068 0.534235 0  0.253262 0.965623 0  0.893804 0.49307 0  0.604391 0.572456 0  0.947088 0.345347 0  0.439372 0.227307 0  0.629847 0.159823 0  0.273405 0.880181 0  0.302744 0.776823 0  0.781502 0.295365 0  0.275342 0.349602 0  0.7283849999999999 0.472798 0  0.229136 0.246478 0  0.807794 0.480346 0  0.709476 0.112786 0  0.275506 0.694991 0  0.771674 0.394419 0  0.449715 0.861802 0  0.419159 0.799696 0  0.674851 0.503139 0  0.280443 0.61016 0  0.572443 0.192538 0  0.393113 0.87525 0  0.405555 0.948428 0  0.330942 0.934103 0  0.540509 0.597101 0  0.312763 0.6689310000000001 0  0.254368 0.540179 0  0.595265 0.25915 0  0.606679 0.234099 0  0.657131 0.279138 0  0.722458 0.279478 0  0.333 0.308056 0  0.351529 0.246142 0  0.455714 0.7257940000000001 0  0.585239 0.295143 0  0.340062 0.72492 0  0.545593 0.293773 0  0.555449 0.545426 0  0.414311 0.737314 0  0.590854 0.502323 0  0.350507 0.368444 0  0.484423 0.625665 0  0.483899 0.674542 0  0.378137 0.317274 0  0.446416 0.646404 0  0.373532 0.347654 0  0.446876 0.619769 0  0.466106 0.666068 0  0.437545 0.609254 0  0.434988 0.565726 0  0.41462 0.656829 0  0.418803 0.556961 0  0.398425 0.327446 0  0.517803 0.310421 0  0.549516 0.322918 0  0.57701 0.842889 0  0.8291269999999999 0.773906 0  0.643235 0.684732 0  0.134281 0.207734 0  0.865997 0.055966 0  0.680959 0.723345 0  0.165229 0.8415550000000001 0  0.54558 0.959672 0  0.783726 0.656439 0  0.913315 0.595533 0  0.699439 0.860667 0  0.785839 0.125076 0  0.551673 0.037713 0  0.9200970000000001 0.223214 0  0.206406 0.299726 0  0.087064 0.596401 0  0.935644 0.394252 0  0.964557 0.252582 0  0.230124 0.928346 0  0.120579 0.271764 0  0.8572149999999999 0.524082 0  0.7670979999999999 0.5551469999999999 0  0.936094 0.507131 0  0.804064 0.59585 0  0.700565 0.608273 0  0.429773 0.174231 0  0.117746 0.727333 0  0.5389620000000001 0.730231 0  0.862761 0.359173 0  0.821444 0.284046 0  0.193552 0.35818 0  0.234923 0.505555 0  0.193209 0.421217 0  0.220144 0.755896 0  0.594015 0.131642 0  0.283813 0.195855 0  0.517519 0.213961 0  0.553509 0.639116 0  0.280391 0.378018 0  0.852183 0.436817 0  0.746983 0.197173 0  0.821806 0.221318 0  0.449853 0.828453 0  0.883758 0.453926 0  0.183484 0.589542 0  0.348384 0.129314 0  0.255254 0.838525 0  0.504849 0.798516 0  0.320344 0.863432 0  0.611669 0.525425 0  0.265864 0.804962 0  0.72056 0.521442 0  0.613372 0.6101220000000001 0  0.481262 0.881068 0  0.655778 0.191988 0  0.701921 0.196918 0  0.5658260000000001 0.5731810000000001 0  0.46914 0.240927 0  0.343219 0.173284 0  0.888786 0.278502 0  0.244113 0.6750930000000001 0  0.739546 0.417914 0  0.784023 0.355942 0  0.326805 0.265549 0  0.248616 0.6
[...]
<PointData  Scalars="f_263-1"> 
<DataArray  type="Float64"  Name="f_263-1"  format="ascii">8.2572658783730454e+20  7.7267124435069400e+36  4.3365976376678520e+26  -3.3561337966172295e+26  8.9439684553195423e+28  1.0251211171863756e+37  -2.1294252359787086e+23  2.5728374880046550e+23  4.3691445315130001e+24  -1.4307566663882907e+25  -4.2773894073638364e+24  3.2162072783402773e+24  3.0579970431452107e+23  3.0048823897820723e+36  2.8719420582231313e+27  5.6798579274634133e+26  2.1765162837311347e+28  4.9377270579613783e+29  7.4747820390488637e+25  1.5455291115117746e+34  -2.7307177808440063e+32  5.1457094562303862e+21  -8.0263030703443031e+22  2.1602939655590708e+28  -4.5285912562863722e+27  4.2805002858720756e+29  -5.5336561272279078e+27  -1.0905171582850272e+25  1.8769096569426494e+25  1.7019835940644620e+25  -2.9275316279482954e+27  -1.2026408559585786e+29  6.5733021919673588e+30  1.8511062647834857e+18  -1.7760056357042058e+18  1.4187925762878156e+32  1.1629487411623040e+16  -6.1209115166348750e+15  -1.7167513453477153e+30  -4.2668163507871550e+30  -1.2782176986588018e+32  -1.7740758330755395e+31  1.6751347021631528e+31  -2.9641419489002206e+20  4.6011761256159385e+32  -5.2141298570921687e+18  2.2972813681953549e+18  1.5749321492944824e+19  4.4756631414217536e+29  -2.6643518400754288e+26  -3.2384764269434046e+26  1.9723803694046075e+26  -1.3191375344974419e+36  -6.9934205102636405e+25  -3.6717129233619032e+25  -9.3640567447735463e+22  5.1006673051553741e+22  1.2255496556147631e+25  -2.7600728500631306e+27  2.7183469754047340e+26  9.3331072683189522e+28  6.4923145373913209e+30  5.1741678096203272e+28  1.6894639403897543e+28  -4.0291523365680471e+27  -1.0745103694024355e+29  -1.5179582033291131e+41  4.5887539472210975e+29  4.0482996854802965e+29  -7.0978888543328492e+39  5.6998834970515018e+29  -9.9920284636737652e+29  4.0645862309759688e+28  4.9677348899233312e+26  -1.1503605810505331e+26  1.6977238855150266e+38  -1.9029828906327693e+35  -1.1485358254829851e+21  1.5225746958936505e+25  0.0000000000000000e+00  0.0000000000000000e+00  -6.2103416135425602e+20  5.1437565135851740e+23  1.4950161952146029e+22  -5.3221897291518103e+35  1.6426952323851846e+27  7.9625290069545501e+24  -5.6733725751601228e+24  -2.3633800370463134e+25  -3.5022463346150583e+30  -6.5478208567074395e+29  2.3436125938919062e+22  6.2046553797846370e+22  -4.5618943792301275e+23  3.2506457047874517e+36  -1.8163389418071642e+25  7.2457094786428579e+24  1.5518716059474029e+25  -6.9184101903453080e+24  4.2586618070014125e+25  -1.1569496156499077e+26  -5.9398494531760015e+28  5.3372822528718949e+32  3.1716521028357269e+25  3.0892377764808818e+27  -2.1028223618448495e+27  1.4107344230181961e+27  -1.2918103567459191e+27  -3.8501902355919156e+20  -1.0022016216979288e+17  1.9210192387903730e+15  4.4952291326880760e+16  1.3720132953066081e+18  3.0338887037224786e+30  -3.2593936686560219e+21  -8.1126667557706342e+18  1.1628433507455627e+26  1.0021244278879739e+23  2.8297213737191329e+22  2.3452567499168292e+38  -1.7005962399977279e+29  -1.0593319715516139e+28  -3.5244397773914287e+27  1.0372886224718446e+30  1.0425572045820198e+28  -5.1181996997236879e+28  3.4650719784365089e+26  -3.4139835397129789e+23  -1.8768591322145359e+23  1.2369554306372752e+36  -2.8301690245469971e+22  5.3799905355968558e+20  -2.8950366727304612e+25  -7.5631043231925850e+25  -2.9001192683172103e+27  2.2761249662398826e+28  2.6383906482446281e+29  -1.6011966920101357e+28  2.6551166592971759e+27  -8.3803064234850829e+25  -5.4475803926782113e+25  -1.1872723864125339e+27  -2.8506580793393320e+39  1.6689066869061526e+28  -5.3553019423446425e+28  5.9863928077764309e+26  7.5864090869617179e+25  -2.7734994884809438e+26  -2.2424966076291727e+25  1.9545726501250176e+23  -1.6402571501463599e+25  -2.2047903119880385e+27  3.8532595636077679e+27  -4.2379693478999740e+27  6.4076901411751879e+26  4.3167151555072765e+26  7.4358313636923854e+24  1.8759156542909624e+24  0.0000000000000000e+00  0.0000000000000000e+00  0.0000000000000000e+00  0.0000000000000000e+00  0.0000000000000000e+00  0.0000000000000000e+00  0.0000000000000000e+00  0.0000000000000000e+00  0.0000000000000000e+00  -1.7457976958657351e+29  2.3464660553704481e+26  -6.4881364731086431e+26  -7.1924375735759517e+26  -3.5959231784460548e+28  -3.5891636533635998e+28  1.9533712682239522e+28  4.8543117496160985e+27  -1.4793728649961352e+28  1.1306485248114327e+27  -5.6819550397085464e+27  7.3876091582983967e+24  -2.8113234263976338e+24  -1.3543626351841508e+22  5.7347389070428371e+25  1.1381947954404871e+23  -1.0319249041673589e+19  2.9757098110099700e+16  -1.8515940359567417e+19  -1.4700570216505158e+25  -1.3387756244738742e+23  5.8090209798654033e+21  -6.4834962770572139e+26  -5.2769013129131171e+24  -4.4885746134041861e+26  9.1997362947089057e+26  -2.3558183347418934e+27  -8.0574331140664792e+27  -4.3912045245458948e+24  8.1241689399594446e+25  7.3830650301410780e+28  -9.0968348499420979e+25  4.4850290352914072e+28  1.8332189683030644e+29  3.0858620899409665e+28  -1.1271866509136755e+26  5.4412214180631871e+27  -9.7342808339388240e+25  -3.6010717481259320e+26  -3.2684526028016736e+28  5.7422691523279131e+28  8.2492704115702426e+25  1.3745356280927444e+28  -2.0619542992081425e+28  -1.5608865446227031e+28  -1.6062703454471205e+27  3.8061626627467653e+26  -1.3462072629835450e+26  -2.1958127805894753e+24  2.2761654523610792e+25  1.6640481458370228e+23  7.9044191961489737e+27  -5.3976365296105516e+27  5.7783903157535232e+16  2.4677441459144813e+17  1.2460270123579980e+19  1.4480327326864446e+25  -2.4932582615881149e+17  1.0474403454892336e+26  -2.2838701227577392e+16  -4.4255215930945976e+18  3.0886734050897690e+18  -1.7353270134230272e+24  1.2199543923839637e+24  4.2688116279355129e+24  -6.7050691473799968e+21  -6.2081443635430886e+21  -7.2781993635282137e+21  -1.3514053788937440e+28  4.0124011257741330e+24  4.0694493000012050e+26  -2.4407347490874269e+29  -4.5203917568087682e+25  4.1130022853523230e+24  1.4616540918419195e+28  2.1863842666979038e+28  -4.7966743843046576e+26  2.2149476122421726e+27  -1.1446167422919980e+27  5.8980274633786664e+26  1.7333629568702768e+27  -1.2921387056201766e+27  8.8641191599861780e+24  1.8846673646195706e+27  -1.3265573327096659e+23  -5.8040042337279065e+28  8.0721592564612247e+26  1.1656780494430224e+29  -1.9293686710821364e+27  2.4019306472722885e+27  -1.1145970540156764e+28  1.2052829486998156e+24  -1.1286150143676667e+27  1.2171332025402574e+26  -8.7555152035164775e+25  3.2468562377032619e+28  4.4299191011723499e+23  9.7809739004158582e+25  -1.3707626185885194e+26  1.7837829906354757e+28  4.2734703911912481e+28  6.1125408205250777e+28  2.6216861090609518e+27  -3.7258060281734788e+28  -1.5283190120990236e+26  -1.4019436226748740e+29  7.6359794278069025e+27  -4.1341959892459812e+30  7.0571476756618654e+27  3.7459896330526393e+23  -8.8731977307872155e+25  2.2160904158281905e+26  1.6212801156471660e+26  -3.7711956761433719e+27  -2.8488209440851977e+24  1.0762694676142322e+24  5.7641201229545319e+28  6.2855013253534861e+17  5.6407694796896493e+22  -5.9956352054553467e+18  1.4078821781414044e+19  9.6378104888354825e+14  1.4163503987234632e+28  7.3652079670191152e+16  3.1205879274179605e+23  2.5561699723831693e+17  8.4650103216277160e+19  -2.9382550311083763e+17  5.2378307469414758e+18  4.7538875279841080e+16  2.3298194531990108e+18  -9.6090625108011172e+19  -6.5771995814595102e+23  -1.3073556595687545e+21  3.1102443277104068e+22  1.6077301406513230e+22  3.6225302221199162e+25  -2.1552301476836105e+26  -8.3998666154874568e+25  8.4211064292482287e+28  1.0343448176916126e+28  -1.9766357036703622e+27  5.5799937324803367e+25  7.1787737555470299e+27  3.3255654629390185e+25  1.1213647178326953e+27  6.6714468121162438e+27  4.5916615954376557e+27  -2.8745644604352351e+27  -2.5001131920645892e+28  -1.6839344728843922e+28  8.6349622020214251e+26  -1.2375214595674812e+28  1.3039132888500571e+27  1.5902364332022167e+28  1.8612156550047537e+26  3.4940038626523732e+27  6.5119457004206078e+25  -9.2934804977229937e+22  -4.5471009156212785e+25  1.1757336361958059e+26  -3.5908623768413213e+25  -1.7483717602485995e+28  2.1669347184859160e+25  2.9470092083117488e+29  -3.2222429288076671e+28  5.4646974421620425e+26  -2.0630252292824940e+27  5.2657510170845232e+27  -2.4428625276835363e+27  1.1421422169946066e+26  -2.5617997794848066e+27  1.1892677477493331e+28  -6.3021768567655605e+26  -7.5501745496593917e+26  -1.8684332565028600e+27  -1.1467194937075590e+28  4.7720133636091646e+29  5.8555312473019193e+29  5.4083100559538988e+27  1.0417647028246751e+26  4.6601031470694560e+28  4.6388040882644364e+25  2.2066652433268632e+28  -9.3526343246751059e+26  4.7752714962636241e+28  -8.5032635586241997e+26  1.7747205010359642e+27  -6.6995252907239388e+29  -1.4537756215021219e+26  3.6447306613442289e+27  -8.4558218524276017e+26  1.2976099354102561e+29  1.7144996370652154e+28  -4.3311621808678238e+26  6.3398786233545284e+28  -3.8870552898425625e+27  5.0338369528361719e+28  9.9749980645120549e+24  -8.4987903210377988e+25  -1.1574564612111795e+28  -2.7486940581620215e+28  6.4789033883439444e+27  2.4119584858765743e+27  -1.0707592108342524e+26  9.7555850624388398e+24  3.5153855186185474e+28  -5.7619383968697019e+26  2.6065086592308957e+27  3.6588527186653195e+27  7.1159505592941551e+29  -4.0196083946753643e+22  3.0490124302854770e+25  5.9967589702838197e+25  1.6214552294274024e+25  -1.4368167320866783e+23  4.0604441190442669e+22  3.1066921847188346e+25  1.1599173113121167e+26  -1.4718592060969915e+23  2.0850731765835517e+25  6.8131020980170032e+27  3.8320022641989590e+27  3.4518600684301384e+22  7.6778379449287731e+17  4.2326433501358778e+23  -4.6899224269093504e+17  -5.9341662048943892e+18  -8.5501771276650672e+16  8.5980955890965479e+19  -8.0790760513470790e+15  -2.5974042363100856e+20  -2.4387287352728231e+23  -9.8697842754204287e+22  1.3890995702652570e+22  8.4848730920413708e+26  -5.3010337193998801e+25  -1.1346194333872745e+28  -2.1432071829176743e+26  7.6535022892593012e+25  1.7613645382816822e+27  6.7976163275824712e+22  -2.0492665190975547e+27  -2.2095405674824206e+27  4.1776790152236389e+27  -3.4762187971032945e+25  3.4979686746764517e+27  1.5643258641889173e+28  4.1698964555321480e+27  1.7950038994452476e+27  -2.7142885043512166e+28  -1.3496677917083297e+29  1.4102520621842233e+27  9.8414839959540296e+25  -7.9742126997244260e+26  4.6852680271082587e+28  -4.4985960104640919e+27  -9.3768655807146883e+27  -3.1780344770278786e+28  -1.6558424661105555e+27  4.3976018667116511e+28  -5.7344343992224501e+26  -4.8359703270218481e+27  -7.7925136736242626e+29  1.6114938337352988e+29  7.0152568778792490e+26  1.1068806226494981e+28  -2.0196191044054045e+27  1.2065492618347831e+27  6.9873445417196309e+29  9.3172463207186333e+25  -1.5774373995228759e+27  2.3121244257506025e+28  6.1339307419290019e+25  3.3182211981323135e+29  1.1821306269133257e+29  2.0847597960523923e+28  1.4410998726815215e+29  -6.1267320545670106e+28  2.5494234699390067e+28  1.0244378142227903e+27  -8.0963396653618015e+26  -8.0370993549252573e+28  1.5820634138538812e+28  2.0038166548752784e+24  4.6915930864304340e+27  1.3512035891440101e+27  1.0577643872659787e+27  6.8073474260187596e+28  7.4571163518343844e+28  7.7477114186978027e+28  -1.5709855228929073e+25  -1.8573809598107665e+27  -4.2645603102641133e+27  -6.4635492706806140e+28  -4.0579242085499103e+27  4.7892375074667733e+28  2.7728398356204975e+30  7.4471247510911788e+23  8.4742117147864119e+26  -3.2856099549564535e+29  -8.6254977262421997e+28  6.9047636065641979e+22  7.7013259425128984e+27  -1.7248897460911154e+25  3.2942685966809216e+28  -3.9644302190820522e+25  2.3343349961109635e+26  -1.4019150596736751e+30  -1.3646964855762313e+27  -3.6453222527390019e+27  9.1815585361919448e+22  -1.8294862218199750e+28  1.1958839184132711e+29  -7.6559366922506543e+26  -9.8807939242968112e+28  -1.4118772478840194e+26  -5.3851561702288270e+29  9.7636910429941540e+26  -6.1509439164041826e+24  -2.2952350214924780e+24  -4.1542510347135321e+28  -4.1156223073770965e+28  -2.3170755074867226e+26  -1.3952658250576310e+27  -4.6401660622299398e+26  3.9826632234033310e+28  -4.4289196871329996e+25  8.9241348323633584e+28  2.7099457878232770e+26  -2.2134624904584485e+28  -3.3608921389845511e+25  1.9720302078249073e+27  5.8988058033856025e+26  -7.3938724287469251e+26  4.9864140765767217e+26  1.7830597178850120e+23  1.0673966033900407e+29  1.1393202418736542e+24  -9.3859389320942869e+26  3.2423233483208447e+22  6.1968636684342503e+26  -7.5875618859613712e+23  5.0229105395957703e+25  7.0377352787070330e+23  -7.9363281205264204e+22  2.0241790563663025e+23  -4.3411565343413722e+21  1.0754218868175094e+27  2.3406542626648995e+28  -1.0136880821486485e+27  2.4896389939901582e+28  8.6306302288121835e+26  -5.5017582998434418e+26  -2.3794011030347409e+26  6.1235806219483181e+28  9.0076426912676917e+27  1.4609490489851327e+28  9.2916615738128810e+28  1.3053083914788969e+28  -1.3699588861596123e+27  6.7169258570271705e+25  4.1079030670526751e+27  9.3759631899241261e+27  -1.1263974518908569e+28  -5.6308130696800196e+28  -8.5774695152350224e+26  4.4718552874263445e+27  5.8163177783494562e+28  4.2635765684793352e+29  -3.2735025537425406e+27  -1.8428808678313620e+27  2.1930553460578377e+26  -2.6435634590919931e+28  3.4090721290733071e+29  5.3885778988598384e+27  3.0061702210129729e+30  -5.9727556457178995e+28  6.4395482262119870e+25  -2.4426342572637446e+26  2.5808962716217583e+29  9.3306426028217868e+23  1.5374134072604882e+28  8.6357714298621201e+27  2.3110343052339122e+30  1.7634407346539795e+28  4.0853720629925678e+29  -1.3603364472087733e+29  3.7265358031826719e+26  6.4792531703705498e+27  6.1799439185661903e+26  2.6382167394300344e+26  4.3198257498473934e+28  1.9025494696922156e+26  -6.2956479182597675e+26  -6.4403727076240889e+29  -4.1591334478581625e+30  8.6998579938281648e+26  2.0950258592374180e+27  1.5068200348092586e+28  -3.7563209828100963e+26  -1.7613664425860909e+27  1.6259108629538362e+25  -2.8350893509373656e+29  3.8135302826502870e+27  -4.3300251829369884e+25  -4.5745744870819744e+24  2.7371877713055705e+29  -3.8445477007790848e+29  -6.9364397494168079e+28  3.1877095436010911e+27  -5.2565849702602174e+22  -3.0386270512085206e+29  -8.2328679564146966e+28  1.0419255335734700e+28  -3.3720184091415381e+21  -1.1861497060344372e+25  -1.2828018528586816e+31  -8.4143367585676679e+26  2.8320893881822004e+29  8.0850870709880707e+22  2.0418777581082633e+29  -2.5041715361661562e+24  -6.6005485232282158e+27  5.2759301634490338e+29  2.1298251020646151e+28  -2.4484398422097507e+29  8.7492458777348781e+25  8.9719068700389227e+28  -1.0368711751818879e+23  -4.6105466556067641e+26  1.1322482437821141e+27  1.4415193543471435e+26  4.4389375397319606e+23  1.9714331406081622e+27  2.4015091868511549e+27  -5.8821498573029876e+25  -1.1269446071660992e+27  1.5394642868325848e+29  3.5882039500882357e+29  -1.9499347162162577e+27  9.6968635370078626e+24  1.5929564286237128e+27  3.6569473172711239e+28  3.9201728034027375e+28  -9.9306861206704109e+22  1.8594638357616690e+26  5.7449811487306916e+27  3.3918609682638112e+23  -2.1310367059561607e+24  -1.8014321405361980e+26  3.7772497831286262e+24  1.0371447210488602e+23  -1.5753419393208896e+23  -7.9332986861107522e+27  -2.2862708764929714e+27  -5.5642400529070818e+28  -1.5567328599708233e+26  7.5039733079624466e+28  -2.6540261415753470e+28  2.1937222079246887e+28  3.5533102342716746e+27  2.6626846326202411e+28  2.1781261501192007e+29  -1.2596385764440845e+29  6.5706871841846167e+28  3.4352248134371775e+28  -4.1932550928639050e+29  -4.9378575764361639e+25  1.6443243351111639e+26  2.3056807464664873e+28  -4.0166604977511416e+28  -4.3367549956099612e+28  -2.2612859861872271e+27  2.8077407215779949e+28  -6.2134012184025850e+27  5.6300291506887903e+24  -1.3441520361718829e+25  -1.8623318845303828e+26  -4.2235994222584731e+27  -1.9971083523872749e+25  1.8261028404184593e+25  -2.6121249170144672e+26  -1.6737542828883994e+28  -8.5450780309580614e+29  -1.8217691556040918e+27  -9.3647907999891657e+29  -8.5512453310141927e+29  -1.8548583598707835e+28  7.1576488614457371e+27  9.9462810322395251e+23  4.6465173326473038e+28  4.2088163903080529e+29  1.2137072768990887e+27  -6.1254879613077313e+23  3.5210747156566955e+26  -8.2676940634129001e+28  -1.7207197522520146e+29  -1.3658135312329394e+26  -5.2000247358593220e+28  -3.8221396410414391e+26  -9.9428781349298467e+24  6.2749520510337150e+27  -5.8541459978201945e+29  -8.1793348457736959e+29  1.3940003208761755e+29  -7.0430578383641619e+27  1.5832945469547880e+26  -6.0994340383811750e+29  -5.3239136997331332e+25  -3.7559782522597439e+26  -1.1035468274954723e+26  5.2301935475880992e+26  9.7482266283530734e+26  -4.6829964670265704e+28  1.1731356192101790e+26  2.3720253903720857e+26  -1.7771080451915865e+24  2.5225041218235475e+28  -6.5037344048187447e+22  2.7962076928535620e+24  -2.3834969033230286e+29  5.4420534674725490e+28  -9.2423473108176897e+26  -1.0006052090161249e+28  -1.7941880670350779e+29  1.2763038234575335e+29  6.5159081738465710e+26  8.0147516982244893e+27  4.5439097145048526e+28  4.4871380377191095e+25  -1.4945594708853043e+23  3.2369583732140265e+23  -1.9626076978063612e+22  -3.5375668183285396e+22  -1.6623055905060433e+28  6.1446399055714194e+28  -7.0251725983237738e+27  -3.1410782860646528e+27  -1.9265566288290911e+27  -6.0372966763324957e+27  3.4206606522428207e+28  -1.1665053060915468e+25  4.2622949849231764e+28  -3.8189438906013763e+27  -5.9434680423278901e+27  -1.6889349016528424e+30  -5.9634012842735562e+28  -2.1509504841358210e+29  2.3298615570677187e+30  -3.2312935041869755e+27  -6.6033989773407297e+26  7.3973747569567639e+24  2.0703143004857220e+25  -9.2266402704928773e+25  -3.1341355795248384e+27  1.9823366271186041e+30  -4.1778744534090171e+28  -3.1556809386997678e+30  1.8281747999197485e+28  5.7807252731121027e+27  -9.7345952085595724e+24  2.3029692086797157e+25  8.5624553406088743e+28  1.0601141444624837e+30  -3.7809426599465429e+23  1.5962197450717504e+28  5.4973966808894896e+26  2.2533260497129395e+28  3.0005504326791762e+23  2.3808053729975828e+23  -5.7840953454731355e+23  -1.5801605429016949e+22  1.7744739300950955e+28  -2.1666458491724207e+28  -6.4087002116922665e+28  -1.4180301721641387e+28  2.3813365940924164e+29  -2.6550036097732028e+27  7.9766743618221071e+28  -1.0951507681977363e+28  1.9201593719434335e+29  -3.3957906012359133e+24  -1.0247835929798316e+25  7.8250198625314610e+27  7.0638413411808142e+27  -1.5386872391722567e+29  -7.0802961388606893e+22  7.8117693038817213e+22  -8.6740721841550274e+22  -6.7775535488959713e+28  6.2840477164234048e+23  2.2582087606719373e+22  -3.4363688802805010e+20  -1.0363372086451165e+22  -2.5451576893640341e+22  4.8883057501698567e+22  6.3049267715150229e+25  6.6207934667844337e+25  4.4996681815787084e+25  -1.5301193773909080e+25  1.6568721580284380e+27  -5.2668005088145963e+27  -7.9990793201090340e+37  -1.4481815264056383e+30  1.5657702329247309e+30  -8.3438254586226244e+26  -2.9783526862752192e+36  1.5118498738216557e+22  -4.1247844007909014e+22  -6.1392278557512947e+22  5.6896772713961824e+22  -5.3750491773010804e+23  -2.2828367058678216e+24  3.7796928559600177e+26  1.5405708803715514e+25  -4.4139902994228666e+24  -5.8879279574804904e+24  2.3697272883809899e+25  -2.0232420326161908e+25  -2.8741369961735943e+25  -3.0779836611150976e+25  3.1429779607827135e+25  9.8029200266029606e+36  7.2421954577336684e+25  2.3799993942959838e+26  6.0834449874942994e+27  2.2316025365478841e+28  -1.4944216268947094e+29  -1.5222933552101829e+28  -3.9864962254787439e+34  -1.4467862129834550e+25  3.1983890147196863e+23  1.7705675275250286e+32  3.2818686093945544e+21  3.4998299593247660e+20  -1.2832161734306916e+26  2.2202389086026302e+28  -3.1942778191066189e+28  2.1541611320211497e+27  -1.0981204855486875e+29  -2.0652443772230035e+29  -1.9135131220794746e+26  1.0564547220265270e+28  -4.5362871941845987e+31  4.1457441479701694e+24  -1.2074920755698452e