<?xml version="1.0"?>
<VTKFile type="UnstructuredGrid"  version="0.1"  >
<UnstructuredGrid>
<Piece  NumberOfPoints="2868" NumberOfCells="5400">
<Points>
<DataArray  type="Float64"  NumberOfComponents="3"  format="ascii">0.534923 0.326073 0  0.510642 0.314196 0  0.466125 0.293082 0  0.436448 0.281205 0  0.409468 0.275927 0  0.368998 0.270648 0  0.35281 0.275927 0  0.381139 0.302319 0  0.405421 0.326073 0  0.410817 0.33531 0  0.408119 0.349826 0  0.400025 0.357744 0  0.375743 0.368301 0  0.329878 0.392055 0  0.297502 0.432963 0  0.282663 0.476511 0  0.285361 0.524018 0  0.298851 0.572845 0  0.317737 0.6045160000000001 0  0.337972 0.6361869999999999 0  0.360904 0.674457 0  0.368998 0.69953 0  0.359555 0.7219640000000001 0  0.360904 0.757594 0  0.370347 0.766831 0  0.381139 0.762872 0  0.390582 0.741758 0  0.404072 0.720644 0  0.424307 0.707448 0  0.447239 0.702169 0  0.480964 0.704808 0  0.479615 0.6889729999999999 0  0.468823 0.675776 0  0.447239 0.6691780000000001 0  0.428354 0.6691780000000001 0  0.410817 0.6639 0  0.404072 0.653343 0  0.395978 0.628269 0  0.387884 0.59132 0  0.389233 0.576804 0  0.397327 0.557009 0  0.410817 0.547772 0  0.424307 0.546452 0  0.437797 0.55305 0  0.44589 0.5662469999999999 0  0.441843 0.582082 0  0.439145 0.5979179999999999 0  0.449937 0.609795 0  0.468823 0.603196 0  0.479615 0.59 0  0.489058 0.570205 0  0.494454 0.546452 0  0.505246 0.522699 0  0.522783 0.509502 0  0.55246 0.494986 0  0.586185 0.484429 0  0.615863 0.48047 0  0.64554 0.473872 0  0.6671240000000001 0.461995 0  0.683312 0.451438 0  0.696802 0.435603 0  0.703547 0.417128 0  0.7116400000000001 0.393374 0  0.7183850000000001 0.37226 0  0.7251300000000001 0.364342 0  0.739969 0.353785 0  0.7453650000000001 0.344548 0  0.7453650000000001 0.327393 0  0.737271 0.318155 0  0.7183850000000001 0.316835 0  0.7008490000000001 0.319475 0  0.677916 0.318155 0  0.650936 0.316835 0  0.610467 0.318155 0  0.57944 0.324753 0  0.559205 0.328712 0  0.5389699999999999 0.326073 0  1 1 0  1 0 0  0 0 0  0 1 0  0.532238 0.32476 0  0.528748 0.323052 0  0.52421 0.320833 0  0.518311 0.317947 0  0.503447 0.310783 0  0.494093 0.306347 0  0.481933 0.30058 0  0.452151 0.28749 0  0.392327 0.273691 0  0.379141 0.271971 0  0.360474 0.283066 0  0.369797 0.291752 0  0.391424 0.31238 0  0.399335 0.32012 0  0.40958 0.341964 0  0.393939 0.36039 0  0.386028 0.36383 0  0.364248 0.374254 0  0.349304 0.381994 0  0.315801 0.409841 0  0.292986 0.551616 0  0.350934 0.657818 0  0.360127 0.737055 0  0.360566 0.748664 0  0.385245 0.753692 0  0.396447 0.732578 0  0.466301 0.703661 0  0.459439 0.672908 0  0.418442 0.666195 0  0.400553 0.642441 0  0.39255 0.612619 0  0.389913 0.60058 0  0.392752 0.568197 0  0.444131 0.573132 0  0.458149 0.606926 0  0.5005540000000001 0.533026 0  0.571522 0.489019 0  0.632637 0.476741 0  0.689177 0.444553 0  0.708121 0.403702 0  0.715453 0.38144 0  0.732406 0.359166 0  0.7453650000000001 0.337089 0  0.72906 0.317581 0  0.629879 0.317522 0  0.59293 0.321884 0  0.568003 0.326991 0  0.55202 0.327775 0  0.546493 0.327054 0  0.542241 0.326499 0  1 0.9 0  1 0.8 0  1 0.7 0  1 0.6 0  1 0.5 0  1 0.4 0  1 0.3 0  1 0.2 0  1 0.1 0  0.9 0 0  0.8 0 0  0.7 0 0  0.6 0 0  0.5 0 0  0.4 0 0  0.3 0 0  0.2 0 0  0.1 0 0  0.1 1 0  0.2 1 0  0.3 1 0  0.4 1 0  0.5 1 0  0.6 1 0  0.7 1 0  0.8 1 0  0.9 1 0  0 0.1 0  0 0.2 0  0 0.3 0  0 0.4 0  0 0.5 0  0 0.6 0  0 0.7 0  0 0.8 0  0 0.9 0  0.535686 0.5031910000000001 0  0.753987 0.733359 0  0.167145 0.741436 0  0.173378 0.257204 0  0.733497 0.159862 0  0.554096 0.15788 0  0.849187 0.479053 0  0.488793 0.838452 0  0.138507 0.5592 0  0.30686 0.154944 0  0.348904 0.890523 0  0.058006 0.065099 0  0.06984899999999999 0.937917 0  0.93633 0.939704 0  0.934625 0.053613 0  0.343397 0.333452 0  0.473272 0.639943 0  0.433266 0.638072 0  0.415174 0.58269 0  0.533435 0.545042 0  0.390848 0.340652 0  0.53655 0.320242 0  0.127966 0.393775 0  0.83861 0.850455 0  0.635242 0.8551299999999999 0  0.852158 0.633441 0  0.653427 0.626848 0  0.861226 0.24292 0  0.166128 0.12976 0  0.216875 0.8698709999999999 0  0.458305 0.11179 0  0.84446 0.101633 0  0.202024 0.642528 0  0.644825 0.115855 0  0.671342 0.218358 0  0.251354 0.286186 0  0.262388 0.75153 0  0.063044 0.751571 0  0.068189 0.242962 0  0.435781 0.9053949999999999 0  0.934144 0.451133 0  0.568393 0.237622 0  0.814984 0.395506 0  0.752951 0.517227 0  0.456254 0.780699 0  0.073352 0.531116 0  0.337731 0.206071 0  0.363213 0.960371 0  0.330742 0.363592 0  0.516613 0.55705 0  0.369057 0.332992 0  0.500926 0.617309 0  0.498004 0.665534 0  0.412142 0.61178 0  0.454233 0.6366039999999999 0  0.422782 0.567496 0  0.541193 0.5214800000000001 0  0.439761 0.65557 0  0.5163 0.533672 0  0.414775 0.64562 0  0.40073 0.576135 0  0.430362 0.5880339999999999 0  0.385432 0.351492 0  0.400298 0.335397 0  0.398325 0.348194 0  0.528702 0.314885 0  0.540814 0.322334 0  0.534477 0.322953 0  0.619095 0.743583 0  0.885162 0.737972 0  0.08076 0.668849 0  0.90734 0.36634 0  0.09468699999999999 0.868937 0  0.759838 0.912152 0  0.901518 0.540898 0  0.747285 0.607479 0  0.229182 0.071641 0  0.06915399999999999 0.450091 0  0.244775 0.203309 0  0.076534 0.331755 0  0.897847 0.167826 0  0.578909 0.911415 0  0.07713299999999999 0.146341 0  0.477215 0.203448 0  0.922631 0.869341 0  0.517415 0.074785 0  0.297026 0.827793 0  0.7832710000000001 0.246505 0  0.74519 0.061079 0  0.36033 0.069068 0  0.210313 0.475228 0  0.859426 0.928758 0  0.5745479999999999 0.609182 0  0.243069 0.383398 0  0.283099 0.934598 0  0.417416 0.843141 0  0.643942 0.553164 0  0.112687 0.079336 0  0.281357 0.658386 0  0.765043 0.436177 0  0.611361 0.198486 0  0.234496 0.58911 0  0.206479 0.702638 0  0.679608 0.155818 0  0.62682 0.259978 0  0.690538 0.264164 0  0.448938 0.956308 0  0.808154 0.328403 0  0.379583 0.91913 0  0.308083 0.297769 0  0.312358 0.730249 0  0.563101 0.278576 0  0.435597 0.746198 0  0.385475 0.225229 0  0.572248 0.518034 0  0.357864 0.35422 0  0.497647 0.641694 0  0.458101 0.655768 0  0.360474 0.310727 0  0.467038 0.620139 0  0.47798 0.659909 0  0.41102 0.628072 0  0.48324 0.609015 0  0.427544 0.617941 0  0.388633 0.328253 0  0.405336 0.599404 0  0.408351 0.565178 0  0.42395 0.600985 0  0.431562 0.576523 0  0.424905 0.6551979999999999 0  0.398064 0.58782 0  0.427739 0.557934 0  0.5192909999999999 0.303443 0  0.53142 0.320293 0  0.5449000000000001 0.323642 0  0.537166 0.323513 0  0.153974 0.920841 0  0.9181859999999999 0.67343 0  0.759946 0.820588 0  0.5375259999999999 0.783091 0  0.816532 0.545843 0  0.813991 0.178083 0  0.836774 0.702023 0  0.149815 0.318856 0  0.662287 0.923338 0  0.680146 0.791192 0  0.708961 0.663172 0  0.9372779999999999 0.287318 0  0.574622 0.6881660000000001 0  0.5894740000000001 0.076262 0  0.502822 0.926683 0  0.222269 0.811068 0  0.380457 0.164786 0  0.15321 0.684154 0  0.458063 0.051413 0  0.161702 0.056026 0  0.199351 0.198818 0  0.298946 0.09553200000000001 0  0.902465 0.795949 0  0.121139 0.791477 0  0.906269 0.112287 0  0.056109 0.822332 0  0.512172 0.13237 0  0.940964 0.741805 0  0.888887 0.408777 0  0.354543 0.825964 0  0.808736 0.068638 0  0.068507 0.394071 0  0.719105 0.563843 0  0.247287 0.149664 0  0.293062 0.237128 0  0.240524 0.434997 0  0.141255 0.623289 0  0.945202 0.160621 0  0.502914 0.247629 0  0.144669 0.480811 0  0.665025 0.060817 0  0.728047 0.224344 0  0.861995 0.313312 0  0.200068 0.534235 0  0.253262 0.965623 0  0.893804 0.49307 0  0.604391 0.572456 0  0.947088 0.345347 0  0.439372 0.227307 0  0.629847 0.159823 0  0.273405 0.880181 0  0.302744 0.776823 0  0.781502 0.295365 0  0.275342 0.349602 0  0.7283849999999999 0.472798 0  0.229136 0.246478 0  0.807794 0.480346 0  0.709476 0.112786 0  0.275506 0.694991 0  0.771674 0.394419 0  0.449715 0.861802 0  0.419159 0.799696 0  0.674851 0.503139 0  0.280443 0.61016 0  0.572443 0.192538 0  0.393113 0.87525 0  0.405555 0.948428 0  0.330942 0.934103 0  0.540509 0.597101 0  0.312763 0.6689310000000001 0  0.254368 0.540179 0  0.595265 0.25915 0  0.606679 0.234099 0  0.657131 0.279138 0  0.722458 0.279478 0  0.333 0.308056 0  0.351529 0.246142 0  0.455714 0.7257940000000001 0  0.585239 0.295143 0  0.340062 0.72492 0  0.545593 0.293773 0  0.555449 0.545426 0  0.414311 0.737314 0  0.590854 0.502323 0  0.350507 0.368444 0  0.484423 0.625665 0  0.483899 0.674542 0  0.378137 0.317274 0  0.446416 0.646404 0  0.373532 0.347654 0  0.446876 0.619769 0  0.466106 0.666068 0  0.437545 0.609254 0  0.434988 0.565726 0  0.41462 0.656829 0  0.418803 0.556961 0  0.398425 0.327446 0  0.517803 0.310421 0  0.549516 0.322918 0  0.57701 0.842889 0  0.8291269999999999 0.773906 0  0.643235 0.684732 0  0.134281 0.207734 0  0.865997 0.055966 0  0.680959 0.723345 0  0.165229 0.8415550000000001 0  0.54558 0.959672 0  0.783726 0.656439 0  0.913315 0.595533 0  0.699439 0.860667 0  0.785839 0.125076 0  0.551673 0.037713 0  0.9200970000000001 0.223214 0  0.206406 0.299726 0  0.087064 0.596401 0  0.935644 0.394252 0  0.964557 0.252582 0  0.230124 0.928346 0  0.120579 0.271764 0  0.8572149999999999 0.524082 0  0.7670979999999999 0.5551469999999999 0  0.936094 0.507131 0  0.804064 0.59585 0  0.700565 0.608273 0  0.429773 0.174231 0  0.117746 0.727333 0  0.5389620000000001 0.730231 0  0.862761 0.359173 0  0.821444 0.284046 0  0.193552 0.35818 0  0.234923 0.505555 0  0.193209 0.421217 0  0.220144 0.755896 0  0.594015 0.131642 0  0.283813 0.195855 0  0.517519 0.213961 0  0.553509 0.639116 0  0.280391 0.378018 0  0.852183 0.436817 0  0.746983 0.197173 0  0.821806 0.221318 0  0.449853 0.828453 0  0.883758 0.453926 0  0.183484 0.589542 0  0.348384 0.129314 0  0.255254 0.838525 0  0.504849 0.798516 0  0.320344 0.863432 0  0.611669 0.525425 0  0.265864 0.804962 0  0.72056 0.521442 0  0.613372 0.6101220000000001 0  0.481262 0.881068 0  0.655778 0.191988 0  0.701921 0.196918 0  0.5658260000000001 0.5731810000000001 0  0.46914 0.240927 0  0.343219 0.173284 0  0.888786 0.278502 0  0.244113 0.6750930000000001 0  0.739546 0.417914 0  0.784023 0.355942 0  0.326805 0.265549 0  0.248616 0.6
[...]
<PointData  Vectors="f_263-0"> 
<DataArray  type="Float64"  Name="f_263-0"  NumberOfComponents="3" format="ascii">3.3749127721314449e+02 4.7482285400937900e+02 0.0000000000000000e+00  -1.2728042469627941e+05 -6.3986803482844472e+04 0.0000000000000000e+00  -1.5025717133672189e+07 8.1222516559320539e+06 0.0000000000000000e+00  2.4498410340336934e+08 -1.1802165192250230e+09 0.0000000000000000e+00  1.6473076834229736e+09 3.5899144257332657e+10 0.0000000000000000e+00  -7.6189167844545275e+07 1.2368206861734942e+08 0.0000000000000000e+00  -1.8620596538957652e+04 -2.4900508744442526e+04 0.0000000000000000e+00  3.0388801531762438e+03 2.2711120870763280e+04 0.0000000000000000e+00  -8.7978118057437987e+03 -7.7029410280919314e+04 0.0000000000000000e+00  -1.5994180438609277e+04 1.4385772269021298e+04 0.0000000000000000e+00  -3.9930784938793317e+04 2.0808509134169505e+05 0.0000000000000000e+00  2.0506817396325670e+05 -1.2836225604265202e+05 0.0000000000000000e+00  6.9919067152007483e+05 -4.4056304690007371e+05 0.0000000000000000e+00  1.6873943345628686e+07 -1.4260175300263962e+07 0.0000000000000000e+00  3.4828518558070483e+09 -3.9533385503615575e+09 0.0000000000000000e+00  1.7303885508871235e+10 -2.3421440689761177e+10 0.0000000000000000e+00  -6.9177835179595032e+09 1.1912830477136199e+09 0.0000000000000000e+00  1.0545006075931358e+10 0.0000000000000000e+00 0.0000000000000000e+00  1.7558851543076989e+08 1.1275557826632509e+09 0.0000000000000000e+00  1.8631977701350517e+05 2.7162795341594657e+05 0.0000000000000000e+00  -1.1714057163211896e+03 -8.8987858135904060e+02 0.0000000000000000e+00  -4.3637278148533403e+00 -4.8077050272112501e+01 0.0000000000000000e+00  -6.4932049916526023e+02 3.2454723324310100e+02 0.0000000000000000e+00  -8.3697988126952574e+07 -3.4365727905888152e+08 0.0000000000000000e+00  -2.7413164305643588e+08 -3.3635925765844903e+09 0.0000000000000000e+00  -1.4890405062837271e+11 -2.7154887601909031e+10 0.0000000000000000e+00  9.1630056011033559e+08 3.2174903105192728e+09 0.0000000000000000e+00  -3.6296909221215697e+04 3.7249763437779744e+04 0.0000000000000000e+00  -3.7606351328784945e-11 -4.3999386746828093e-12 0.0000000000000000e+00  -4.4043932794128614e+05 9.6304341107445463e+04 0.0000000000000000e+00  0.0000000000000000e+00 6.5553722435572729e+09 0.0000000000000000e+00  -3.4209173801619041e+10 3.9549605372130409e+10 0.0000000000000000e+00  8.2200001281707937e+00 -1.0993038688113833e+01 0.0000000000000000e+00  -1.2349619659166304e-03 5.0320107265036038e-02 0.0000000000000000e+00  -5.3868044919229731e-03 -3.4235123158747327e-03 0.0000000000000000e+00  2.2603524930517852e-04 1.1934157825244506e-03 0.0000000000000000e+00  8.6474494244353248e-04 1.9957610950820650e-03 0.0000000000000000e+00  5.1009631479270161e-21 -3.5444057108262640e-21 0.0000000000000000e+00  -5.7131540851137960e-02 2.1726987060264849e-01 0.0000000000000000e+00  4.0967074307984497e-01 -6.7118298335161597e-01 0.0000000000000000e+00  4.6120851170614277e+00 -2.6814980932680708e+01 0.0000000000000000e+00  -1.1637129182406490e+01 2.0899968198314811e+00 0.0000000000000000e+00  9.4868005607584323e+01 4.4451614501563320e+01 0.0000000000000000e+00  1.7248353091150674e+00 4.1005643840943690e-01 0.0000000000000000e+00  2.2951057291740522e+00 2.9904475329573033e+00 0.0000000000000000e+00  -2.2296203166082140e-01 1.2476069435759599e-01 0.0000000000000000e+00  -1.7597671063818504e-01 -7.9074676671938141e-02 0.0000000000000000e+00  1.7157352669933520e-01 4.5704204700185595e-02 0.0000000000000000e+00  2.9305428711347618e+10 -2.1184805434966113e+11 0.0000000000000000e+00  7.6742542990587652e+08 2.8003156800907998e+09 0.0000000000000000e+00  1.3276524518291922e+07 2.4792163606677037e+07 0.0000000000000000e+00  9.1555414117635339e+07 1.8725571219161637e+07 0.0000000000000000e+00  4.1543404405024506e+07 -2.2415297524346575e+07 0.0000000000000000e+00  2.7369527801333759e+06 7.3186919665196473e+06 0.0000000000000000e+00  5.2525577300177465e+04 -5.5303202410629881e+05 0.0000000000000000e+00  3.4508916668987272e+03 -1.2698456152740187e+02 0.0000000000000000e+00  -5.6607539578640365e-01 2.0921117628634106e-14 0.0000000000000000e+00  1.7510150100821379e+05 5.2707002369066468e+04 0.0000000000000000e+00  1.5879113587722650e+08 3.5390349108159818e+07 0.0000000000000000e+00  2.7611737326356095e+08 -8.1556543160097227e+07 0.0000000000000000e+00  -8.6490493188169922e+10 -6.0560903341177910e+10 0.0000000000000000e+00  1.2815074867975514e+11 -3.8322118556831348e+11 0.0000000000000000e+00  -1.8096540737525856e+10 -5.1197424287737236e+09 0.0000000000000000e+00  5.0545536001890683e+08 1.1719549202361131e+09 0.0000000000000000e+00  -9.1918009497571707e+07 -2.9109902976569906e+07 0.0000000000000000e+00  1.5717841391861813e+11 1.2382188670781128e+12 0.0000000000000000e+00  7.2078265888854635e+08 1.2056424022474825e+11 0.0000000000000000e+00  4.6199690487389084e+10 7.9735764587915466e+10 0.0000000000000000e+00  8.8891061427353535e+09 1.4506375936993656e+08 0.0000000000000000e+00  -2.1926394971412083e+12 2.0478250734606843e+12 0.0000000000000000e+00  7.4949515012994949e+10 -3.5998834686812574e+08 0.0000000000000000e+00  -1.5323225399220193e+11 7.0371738370418564e+10 0.0000000000000000e+00  2.8576020997279067e+09 8.1979016780095156e+06 0.0000000000000000e+00  -4.1401486571971841e+07 -5.3428363462358400e+07 0.0000000000000000e+00  -9.5742608852156829e+06 -4.2182918077679938e+06 0.0000000000000000e+00  -7.9117314841500993e+03 1.5811295212625995e+04 0.0000000000000000e+00  -7.9617696093244618e+01 6.0703644649734706e+01 0.0000000000000000e+00  1.0000000000000161e+02 6.6707897393999403e-13 0.0000000000000000e+00  9.9999999996521083e+01 -4.3260538497295666e-10 0.0000000000000000e+00  2.3549456260306211e+06 -7.7466778762542293e+05 0.0000000000000000e+00  -1.0122259133618380e+04 -6.8947556197912396e-01 0.0000000000000000e+00  5.4304504224610473e-01 0.0000000000000000e+00 0.0000000000000000e+00  4.6263302719908059e-18 5.0206075617983123e-17 0.0000000000000000e+00  -4.1258464094074597e+01 -2.0099240191189760e+00 0.0000000000000000e+00  -2.2483006126922855e+03 3.9138569766966575e+03 0.0000000000000000e+00  -7.3598808788554612e+04 -7.8973780752874457e+05 0.0000000000000000e+00  1.7831507909002246e+06 1.2736451770255629e+06 0.0000000000000000e+00  -3.5651902425114741e+05 -6.7720562293734562e+04 0.0000000000000000e+00  -2.0344858567962553e+07 -5.4218496200731046e+07 0.0000000000000000e+00  4.1456602152162004e+09 5.6906787056620026e+09 0.0000000000000000e+00  1.2269910783364540e+10 1.7364255347972069e+10 0.0000000000000000e+00  9.0268533760326616e-14 1.3532885539707986e-13 0.0000000000000000e+00  4.9579198264474428e+02 4.4501103547441988e+02 0.0000000000000000e+00  -3.3745546751541146e+03 1.5103040207560596e+04 0.0000000000000000e+00  5.7240141897775943e+05 3.6453379942436336e+05 0.0000000000000000e+00  -3.3356490354813504e+04 1.4075235144675299e+05 0.0000000000000000e+00  -1.5770249573809296e+05 -1.9847931348136251e+04 0.0000000000000000e+00  -1.9995219242025536e+05 8.4464267095230136e+05 0.0000000000000000e+00  1.3680074141329767e+06 -6.2707120801112766e+05 0.0000000000000000e+00  0.0000000000000000e+00 1.1799592376133492e+06 0.0000000000000000e+00  -1.4339929533893906e+07 -9.2111387748343870e+06 0.0000000000000000e+00  -5.9813496059725008e+09 -1.7990567637464302e+09 0.0000000000000000e+00  -1.1176273685344131e+05 -4.8591780579566221e+04 0.0000000000000000e+00  3.8251577888137498e+05 4.2387228964228713e+05 0.0000000000000000e+00  2.6546239852121842e+08 -8.8453052509798765e+07 0.0000000000000000e+00  2.2780144842396416e+06 1.4585356561933792e+08 0.0000000000000000e+00  2.0262298443837468e+07 -5.6232633272278324e+07 0.0000000000000000e+00  -6.7889208763834000e+07 1.4176760131809798e+08 0.0000000000000000e+00  8.7804873366316494e-01 -6.7619030444858885e-01 0.0000000000000000e+00  -3.2208102905145987e-03 9.7014354113452524e-04 0.0000000000000000e+00  -2.4648452746392274e-04 1.3756073949033231e-04 0.0000000000000000e+00  9.8578172489912304e-05 6.8447325564457870e-05 0.0000000000000000e+00  -2.8323076490605792e-01 1.2166680414861511e-01 0.0000000000000000e+00  -1.5314556464199074e+00 -9.7394701361658997e-01 0.0000000000000000e+00  -2.8062919762673224e+00 -8.9427773941706175e+00 0.0000000000000000e+00  -6.9219200529181948e+06 1.1650426104110025e+07 0.0000000000000000e+00  -9.9920720434891968e+05 -5.0437580467189867e+06 0.0000000000000000e+00  -8.7060790838837449e+04 3.8414665316836610e+04 0.0000000000000000e+00  -4.6120130428658535e+02 -2.1626792745638488e+02 0.0000000000000000e+00  3.0368079278113598e+08 1.3117786326908386e+09 0.0000000000000000e+00  2.8287165679675907e+08 -2.9891508446820965e+09 0.0000000000000000e+00  -4.3784126099255151e+08 -4.2127938024768634e+09 0.0000000000000000e+00  4.3629767494238701e+10 -5.6375216810522797e+10 0.0000000000000000e+00  -1.4556381323511646e+11 -4.7515176430334863e+11 0.0000000000000000e+00  2.9409978924657963e+07 -2.0681051275219557e+08 0.0000000000000000e+00  3.3622964711245365e+09 7.1677092126220503e+09 0.0000000000000000e+00  5.3750504500477938e+06 -1.0788664696249836e+06 0.0000000000000000e+00  3.2415083760517729e+04 -5.9293656226445137e+02 0.0000000000000000e+00  -2.9435750788412053e+04 2.8607123105421615e+03 0.0000000000000000e+00  -7.4564486645055422e+02 -4.7261288549520657e+02 0.0000000000000000e+00  4.6377281456793082e+02 -2.9201013072981950e+03 0.0000000000000000e+00  4.0988937519359058e+02 -4.5754508262042273e+03 0.0000000000000000e+00  7.3897509137078503e+05 8.2319936818748538e+05 0.0000000000000000e+00  -3.8771028336511035e+06 -4.8343664694650145e+06 0.0000000000000000e+00  -2.4108757811856995e+09 5.6557078895426111e+09 0.0000000000000000e+00  4.0129172371888070e+09 -2.5728562750809479e+11 0.0000000000000000e+00  2.6823597309775989e+11 -5.2319789509503571e+11 0.0000000000000000e+00  -3.0188767031519276e+10 4.0247198329941750e+10 0.0000000000000000e+00  -2.8535188407665181e+08 7.2190544785772789e+08 0.0000000000000000e+00  -1.1756509346635263e+07 8.0193312355316401e+07 0.0000000000000000e+00  -1.4581936731716689e+07 -1.3804126324108718e+06 0.0000000000000000e+00  -1.8354165022673115e+07 1.0280987501192077e+08 0.0000000000000000e+00  5.9690018754418631e+09 -1.1939834059729033e+10 0.0000000000000000e+00  -1.6495143305145337e+11 -8.1943653565091324e+10 0.0000000000000000e+00  1.2103551856753664e+11 1.4367990828392715e+10 0.0000000000000000e+00  -6.1835985377204580e+09 -1.4524342834234557e+09 0.0000000000000000e+00  7.4953049568728197e+08 -3.4147274444209039e+07 0.0000000000000000e+00  -1.4571259123304072e+08 -2.0397986239952572e+07 0.0000000000000000e+00  1.1740930575585891e+06 -4.3867611688476857e+06 0.0000000000000000e+00  8.6907908345734805e+05 -4.1666523877332616e+05 0.0000000000000000e+00  -2.7034179110826682e+07 -2.3258869932608395e+06 0.0000000000000000e+00  -3.6863845528123134e+08 1.5869835290374210e+09 0.0000000000000000e+00  6.5468640835359793e+09 1.6213931583364861e+09 0.0000000000000000e+00  -5.5584873924990089e+10 -5.2281294744044828e+09 0.0000000000000000e+00  -1.2326613945343933e+09 -3.0588826947534412e+08 0.0000000000000000e+00  3.7453146132479854e+07 -7.4112876558032438e+07 0.0000000000000000e+00  -8.6359214374913310e+05 -3.1307080515287758e+04 0.0000000000000000e+00  -4.0219207236888047e+04 -2.0204404297662252e+03 0.0000000000000000e+00  -3.6854725590350600e+16 -3.5948286494228020e+15 0.0000000000000000e+00  -2.3820499806121956e+16 -8.0214345459952260e+15 0.0000000000000000e+00  2.4085679074261190e+15 -1.3525280835307634e+16 0.0000000000000000e+00  1.5971277370957432e+16 -1.6883691905431954e+16 0.0000000000000000e+00  1.8762615726119244e+16 -1.4825116122035600e+16 0.0000000000000000e+00  1.3903723760490274e+16 -1.1924656660583374e+16 0.0000000000000000e+00  8.1781167567742880e+15 -7.5818359310157080e+15 0.0000000000000000e+00  4.6971522371812250e+15 -3.8062871082228360e+15 0.0000000000000000e+00  3.0955053576378815e+15 -1.1273254549929142e+15 0.0000000000000000e+00  8.7649076151978472e+04 -1.9255723013278792e+05 0.0000000000000000e+00  -1.3037193147899490e+17 6.6778630052635632e+16 0.0000000000000000e+00  -2.5551574329601156e+14 -2.9929811134365120e+15 0.0000000000000000e+00  1.4946247281277602e+15 -2.8742913494588988e+16 0.0000000000000000e+00  4.0793168289745592e+19 1.7692266051505703e+19 0.0000000000000000e+00  -2.5260152303973919e+18 5.9781816590784000e+18 0.0000000000000000e+00  5.6618392235694049e+18 5.0745978684768819e+18 0.0000000000000000e+00  1.4194309344779090e+15 1.1435719562401905e+15 0.0000000000000000e+00  1.1037687038293148e+16 -1.2278913497192664e+16 0.0000000000000000e+00  -5.8864520986706520e+16 -4.5380761360527872e+17 0.0000000000000000e+00  7.9921278442316175e+14 6.2236744228033228e+11 0.0000000000000000e+00  -2.9379859950085500e+16 -2.1547189495899130e+15 0.0000000000000000e+00  1.7033461126465240e+15 1.4360252241075006e+14 0.0000000000000000e+00  4.2468216194600825e+15 -3.1406472495692620e+15 0.0000000000000000e+00  6.5170237502414897e+19 4.4997866140408840e+19 0.0000000000000000e+00  -1.5150577550773710e+16 9.1684040881702624e+16 0.0000000000000000e+00  1.1296088281152656e+12 8.6242788661245762e+12 0.0000000000000000e+00  9.0290597083713303e+10 3.1962489956058966e+11 0.0000000000000000e+00  2.5097526274101270e+11 -7.6034043381224075e+10 0.0000000000000000e+00  -1.5222771260037255e+15 2.8352264197263435e+15 0.0000000000000000e+00  -1.4241927870416634e+17 -1.0249478156157611e+17 0.0000000000000000e+00  1.7917653890099622e+14 -5.1475705531890100e+15 0.0000000000000000e+00  1.7501439353472150e+16 -2.1028204906848272e+16 0.0000000000000000e+00  8.5021352099324608e+16 3.4655459077092980e+16 0.0000000000000000e+00  7.2135433269776100e+15 2.4265056599663296e+16 0.0000000000000000e+00  -5.6736428358735405e+17 1.8403146023773568e+17 0.0000000000000000e+00  5.3910776417427696e+16 -5.8194259784349280e+16 0.0000000000000000e+00  -3.6651871993952215e+19 -3.0954404808512487e+19 0.0000000000000000e+00  -2.0772151968114400e+16 -4.2280727536933640e+16 0.0000000000000000e+00  -1.3847425350132322e+14 -5.3576751700806069e+14 0.0000000000000000e+00  8.5377142025375334e+17 4.4367263493210259e+17 0.0000000000000000e+00  -2.1174155624140296e+19 -4.7714586516310172e+19 0.0000000000000000e+00  1.5144592660538119e+14 -5.6574110107461640e+15 0.0000000000000000e+00  5.7527859381957960e+18 3.2540984594036441e+19 0.0000000000000000e+00  3.9767897522777817e+19 -8.1847671858712812e+18 0.0000000000000000e+00  1.9468327138120944e+16 -3.4050673314263628e+16 0.0000000000000000e+00  -1.1714690137596888e+15 1.6033156996544508e+15 0.0000000000000000e+00  3.5776974181712910e+15 -5.1950053871821230e+15 0.0000000000000000e+00  -7.9334574564693770e+15 -1.1598051173196336e+16 0.0000000000000000e+00  7.9247749433567288e+14 -1.8053657076161128e+14 0.0000000000000000e+00  7.5817305255626772e+18 -6.2298985708617206e+18 0.0000000000000000e+00  3.1677909699227689e+18 1.1361237690478372e+18 0.0000000000000000e+00  4.5522928527739806e+19 5.9867921103945654e+19 0.0000000000000000e+00  9.2286902410884384e+16 -1.7718838412873239e+18 0.0000000000000000e+00  4.2039784937620075e+14 3.4383897884801669e+14 0.0000000000000000e+00  1.4479861450688726e+16 -1.5291332044588236e+16 0.0000000000000000e+00  -5.4630744346770368e+17 -5.4023915662710944e+17 0.0000000000000000e+00  3.5153077477568544e+14 -3.9422404042996703e+13 0.0000000000000000e+00  1.5708650922826826e+17 3.9919841359576909e+17 0.0000000000000000e+00  -1.1545852359756895e+15 7.8307589313485675e+14 0.0000000000000000e+00  -3.8904137645455904e+16 -5.1218110685348536e+16 0.0000000000000000e+00  7.6267293591704016e+13 3.3164671426819488e+14 0.0000000000000000e+00  7.2355530210948516e+13 -3.1227201732222062e+14 0.0000000000000000e+00  8.3489753775850342e+10 9.4342767479593830e+09 0.0000000000000000e+00  -1.2078478399971404e+12 1.0991758635321863e+12 0.0000000000000000e+00  9.4451804224887878e+11 -1.9003691402712296e+11 0.0000000000000000e+00  5.1741318498746188e+14 2.6060284321477430e+15 0.0000000000000000e+00  2.8676408342859424e+11 2.8098527784473224e+11 0.0000000000000000e+00  6.0957153272299797e+13 -1.3360844221850578e+15 0.0000000000000000e+00  -1.5767559579557701e+10 7.0830416735616417e+09 0.0000000000000000e+00  -1.7197904449626855e+11 7.8312962217578049e+10 0.0000000000000000e+00  1.6155066416626126e+11 -2.7086473452840048e+11 0.0000000000000000e+00  -6.0214494137164656e+16 7.1258035913590560e+16 0.0000000000000000e+00  -1.1785125266105429e+17 -5.0251576765370920e+16 0.0000000000000000e+00  -4.1785374984639928e+16 -3.8115190594609152e+16 0.0000000000000000e+00  -7.6495206600259310e+15 8.0693369596970430e+15 0.0000000000000000e+00  -9.4691604089623280e+15 -8.4384233314342720e+15 0.0000000000000000e+00  -3.8891432670776125e+14 -1.0419217232724608e+15 0.0000000000000000e+00  -1.4043224046882250e+16 -2.9559342065222430e+15 0.0000000000000000e+00  8.4137580948952832e+16 2.6203284107208259e+17 0.0000000000000000e+00  6.2688731156318100e+15 -8.3963909663173630e+15 0.0000000000000000e+00  2.4025289173356687e+19 -3.3035996928106971e+19 0.0000000000000000e+00  1.1236370637640836e+15 -9.2303429046907750e+14 0.0000000000000000e+00  4.1902807277286824e+16 3.0378873336190216e+16 0.0000000000000000e+00  1.0928318861477510e+18 6.1368676126354022e+17 0.0000000000000000e+00  -7.4673264322837968e+16 -4.3411329066050842e+17 0.0000000000000000e+00  4.0137003768540128e+16 -7.6548154900518144e+16 0.0000000000000000e+00  1.7735888380560814e+16 -1.6747600562038418e+16 0.0000000000000000e+00  -8.5275730929048192e+16 -1.1995954362359190e+17 0.0000000000000000e+00  1.1541210882314028e+16 -1.7383965631773788e+16 0.0000000000000000e+00  -4.5973012338721178e+19 -4.4389943470124188e+19 0.0000000000000000e+00  5.2512513510957380e+15 4.6813400807203590e+15 0.0000000000000000e+00  -3.0238771864342064e+16 -8.9604764985066580e+15 0.0000000000000000e+00  1.6804871444084448e+17 1.5722638786455962e+18 0.0000000000000000e+00  6.3737131349280632e+16 -8.2580706534091168e+16 0.0000000000000000e+00  2.9468025255488276e+18 -7.1089124625949082e+17 0.0000000000000000e+00  3.3950685065064312e+14 6.3133446554870300e+14 0.0000000000000000e+00  -1.4104993073724457e+19 6.8443611098574946e+19 0.0000000000000000e+00  -4.4792163334543598e+19 -1.8375786270808447e+20 0.0000000000000000e+00  5.8363437663731533e+17 -4.5721890513531373e+17 0.0000000000000000e+00  3.2212567410844400e+15 -9.8706223546830480e+15 0.0000000000000000e+00  4.2496526346949088e+16 -1.4535340709732182e+16 0.0000000000000000e+00  7.1772335072178940e+15 5.8403586463101120e+15 0.0000000000000000e+00  -1.4970259743184472e+16 -4.2505497680551296e+16 0.0000000000000000e+00  6.0274170558275812e+14 -1.9437470154183509e+14 0.0000000000000000e+00  1.0437060588435652e+15 -1.2476700644896566e+13 0.0000000000000000e+00  7.8652418036344784e+16 1.2758369169171986e+17 0.0000000000000000e+00  -2.7869582244854052e+16 -6.8031469701989530e+15 0.0000000000000000e+00  -2.8201084124857565e+15 5.5103894004263900e+15 0.0000000000000000e+00  -1.6569559873836988e+19 -1.4362715646856565e+19 0.0000000000000000e+00  1.7370537119105706e+19 7.0029977101934664e+18 0.0000000000000000e+00  4.3693367172266340e+15 -4.6326147122672410e+15 0.0000000000000000e+00  -1.5852967855487588e+15 -1.9364213853908818e+15 0.0000000000000000e+00  3.3698052977344942e+19 2.3826538584739545e+19 0.0000000000000000e+00  1.4364494417725389e+18 -1.1134932189051884e+19 0.0000000000000000e+00  1.4134205887224031e+19 -3.9573832017951408e+19 0.0000000000000000e+00  9.7834861423008891e+13 -2.0504031773945566e+14 0.0000000000000000e+00  6.0301038302537892e+19 -1.0340617791547535e+19 0.0000000000000000e+00  6.6434344671571212e+14 -1.0753723046786283e+14 0.0000000000000000e+00  4.4609136545579304e+16 2.9371415999897100e+15 0.0000000000000000e+00  -3.5112934926903088e+14 2.3611137027959095e+15 0.0000000000000000e+00  4.5932537818156992e+17 -1.7926875472400125e+17 0.0000000000000000e+00  8.5060560301067672e+13 4.7647411524971234e+13 0.0000000000000000e+00  -1.3884879658