<?xml version="1.0"?>
<VTKFile type="UnstructuredGrid"  version="0.1"  >
<UnstructuredGrid>
<Piece  NumberOfPoints="2868" NumberOfCells="5400">
<Points>
<DataArray  type="Float64"  NumberOfComponents="3"  format="ascii">0.534923 0.326073 0  0.510642 0.314196 0  0.466125 0.293082 0  0.436448 0.281205 0  0.409468 0.275927 0  0.368998 0.270648 0  0.35281 0.275927 0  0.381139 0.302319 0  0.405421 0.326073 0  0.410817 0.33531 0  0.408119 0.349826 0  0.400025 0.357744 0  0.375743 0.368301 0  0.329878 0.392055 0  0.297502 0.432963 0  0.282663 0.476511 0  0.285361 0.524018 0  0.298851 0.572845 0  0.317737 0.6045160000000001 0  0.337972 0.6361869999999999 0  0.360904 0.674457 0  0.368998 0.69953 0  0.359555 0.7219640000000001 0  0.360904 0.757594 0  0.370347 0.766831 0  0.381139 0.762872 0  0.390582 0.741758 0  0.404072 0.720644 0  0.424307 0.707448 0  0.447239 0.702169 0  0.480964 0.704808 0  0.479615 0.6889729999999999 0  0.468823 0.675776 0  0.447239 0.6691780000000001 0  0.428354 0.6691780000000001 0  0.410817 0.6639 0  0.404072 0.653343 0  0.395978 0.628269 0  0.387884 0.59132 0  0.389233 0.576804 0  0.397327 0.557009 0  0.410817 0.547772 0  0.424307 0.546452 0  0.437797 0.55305 0  0.44589 0.5662469999999999 0  0.441843 0.582082 0  0.439145 0.5979179999999999 0  0.449937 0.609795 0  0.468823 0.603196 0  0.479615 0.59 0  0.489058 0.570205 0  0.494454 0.546452 0  0.505246 0.522699 0  0.522783 0.509502 0  0.55246 0.494986 0  0.586185 0.484429 0  0.615863 0.48047 0  0.64554 0.473872 0  0.6671240000000001 0.461995 0  0.683312 0.451438 0  0.696802 0.435603 0  0.703547 0.417128 0  0.7116400000000001 0.393374 0  0.7183850000000001 0.37226 0  0.7251300000000001 0.364342 0  0.739969 0.353785 0  0.7453650000000001 0.344548 0  0.7453650000000001 0.327393 0  0.737271 0.318155 0  0.7183850000000001 0.316835 0  0.7008490000000001 0.319475 0  0.677916 0.318155 0  0.650936 0.316835 0  0.610467 0.318155 0  0.57944 0.324753 0  0.559205 0.328712 0  0.5389699999999999 0.326073 0  1 1 0  1 0 0  0 0 0  0 1 0  0.532238 0.32476 0  0.528748 0.323052 0  0.52421 0.320833 0  0.518311 0.317947 0  0.503447 0.310783 0  0.494093 0.306347 0  0.481933 0.30058 0  0.452151 0.28749 0  0.392327 0.273691 0  0.379141 0.271971 0  0.360474 0.283066 0  0.369797 0.291752 0  0.391424 0.31238 0  0.399335 0.32012 0  0.40958 0.341964 0  0.393939 0.36039 0  0.386028 0.36383 0  0.364248 0.374254 0  0.349304 0.381994 0  0.315801 0.409841 0  0.292986 0.551616 0  0.350934 0.657818 0  0.360127 0.737055 0  0.360566 0.748664 0  0.385245 0.753692 0  0.396447 0.732578 0  0.466301 0.703661 0  0.459439 0.672908 0  0.418442 0.666195 0  0.400553 0.642441 0  0.39255 0.612619 0  0.389913 0.60058 0  0.392752 0.568197 0  0.444131 0.573132 0  0.458149 0.606926 0  0.5005540000000001 0.533026 0  0.571522 0.489019 0  0.632637 0.476741 0  0.689177 0.444553 0  0.708121 0.403702 0  0.715453 0.38144 0  0.732406 0.359166 0  0.7453650000000001 0.337089 0  0.72906 0.317581 0  0.629879 0.317522 0  0.59293 0.321884 0  0.568003 0.326991 0  0.55202 0.327775 0  0.546493 0.327054 0  0.542241 0.326499 0  1 0.9 0  1 0.8 0  1 0.7 0  1 0.6 0  1 0.5 0  1 0.4 0  1 0.3 0  1 0.2 0  1 0.1 0  0.9 0 0  0.8 0 0  0.7 0 0  0.6 0 0  0.5 0 0  0.4 0 0  0.3 0 0  0.2 0 0  0.1 0 0  0.1 1 0  0.2 1 0  0.3 1 0  0.4 1 0  0.5 1 0  0.6 1 0  0.7 1 0  0.8 1 0  0.9 1 0  0 0.1 0  0 0.2 0  0 0.3 0  0 0.4 0  0 0.5 0  0 0.6 0  0 0.7 0  0 0.8 0  0 0.9 0  0.535686 0.5031910000000001 0  0.753987 0.733359 0  0.167145 0.741436 0  0.173378 0.257204 0  0.733497 0.159862 0  0.554096 0.15788 0  0.849187 0.479053 0  0.488793 0.838452 0  0.138507 0.5592 0  0.30686 0.154944 0  0.348904 0.890523 0  0.058006 0.065099 0  0.06984899999999999 0.937917 0  0.93633 0.939704 0  0.934625 0.053613 0  0.343397 0.333452 0  0.473272 0.639943 0  0.433266 0.638072 0  0.415174 0.58269 0  0.533435 0.545042 0  0.390848 0.340652 0  0.53655 0.320242 0  0.127966 0.393775 0  0.83861 0.850455 0  0.635242 0.8551299999999999 0  0.852158 0.633441 0  0.653427 0.626848 0  0.861226 0.24292 0  0.166128 0.12976 0  0.216875 0.8698709999999999 0  0.458305 0.11179 0  0.84446 0.101633 0  0.202024 0.642528 0  0.644825 0.115855 0  0.671342 0.218358 0  0.251354 0.286186 0  0.262388 0.75153 0  0.063044 0.751571 0  0.068189 0.242962 0  0.435781 0.9053949999999999 0  0.934144 0.451133 0  0.568393 0.237622 0  0.814984 0.395506 0  0.752951 0.517227 0  0.456254 0.780699 0  0.073352 0.531116 0  0.337731 0.206071 0  0.363213 0.960371 0  0.330742 0.363592 0  0.516613 0.55705 0  0.369057 0.332992 0  0.500926 0.617309 0  0.498004 0.665534 0  0.412142 0.61178 0  0.454233 0.6366039999999999 0  0.422782 0.567496 0  0.541193 0.5214800000000001 0  0.439761 0.65557 0  0.5163 0.533672 0  0.414775 0.64562 0  0.40073 0.576135 0  0.430362 0.5880339999999999 0  0.385432 0.351492 0  0.400298 0.335397 0  0.398325 0.348194 0  0.528702 0.314885 0  0.540814 0.322334 0  0.534477 0.322953 0  0.619095 0.743583 0  0.885162 0.737972 0  0.08076 0.668849 0  0.90734 0.36634 0  0.09468699999999999 0.868937 0  0.759838 0.912152 0  0.901518 0.540898 0  0.747285 0.607479 0  0.229182 0.071641 0  0.06915399999999999 0.450091 0  0.244775 0.203309 0  0.076534 0.331755 0  0.897847 0.167826 0  0.578909 0.911415 0  0.07713299999999999 0.146341 0  0.477215 0.203448 0  0.922631 0.869341 0  0.517415 0.074785 0  0.297026 0.827793 0  0.7832710000000001 0.246505 0  0.74519 0.061079 0  0.36033 0.069068 0  0.210313 0.475228 0  0.859426 0.928758 0  0.5745479999999999 0.609182 0  0.243069 0.383398 0  0.283099 0.934598 0  0.417416 0.843141 0  0.643942 0.553164 0  0.112687 0.079336 0  0.281357 0.658386 0  0.765043 0.436177 0  0.611361 0.198486 0  0.234496 0.58911 0  0.206479 0.702638 0  0.679608 0.155818 0  0.62682 0.259978 0  0.690538 0.264164 0  0.448938 0.956308 0  0.808154 0.328403 0  0.379583 0.91913 0  0.308083 0.297769 0  0.312358 0.730249 0  0.563101 0.278576 0  0.435597 0.746198 0  0.385475 0.225229 0  0.572248 0.518034 0  0.357864 0.35422 0  0.497647 0.641694 0  0.458101 0.655768 0  0.360474 0.310727 0  0.467038 0.620139 0  0.47798 0.659909 0  0.41102 0.628072 0  0.48324 0.609015 0  0.427544 0.617941 0  0.388633 0.328253 0  0.405336 0.599404 0  0.408351 0.565178 0  0.42395 0.600985 0  0.431562 0.576523 0  0.424905 0.6551979999999999 0  0.398064 0.58782 0  0.427739 0.557934 0  0.5192909999999999 0.303443 0  0.53142 0.320293 0  0.5449000000000001 0.323642 0  0.537166 0.323513 0  0.153974 0.920841 0  0.9181859999999999 0.67343 0  0.759946 0.820588 0  0.5375259999999999 0.783091 0  0.816532 0.545843 0  0.813991 0.178083 0  0.836774 0.702023 0  0.149815 0.318856 0  0.662287 0.923338 0  0.680146 0.791192 0  0.708961 0.663172 0  0.9372779999999999 0.287318 0  0.574622 0.6881660000000001 0  0.5894740000000001 0.076262 0  0.502822 0.926683 0  0.222269 0.811068 0  0.380457 0.164786 0  0.15321 0.684154 0  0.458063 0.051413 0  0.161702 0.056026 0  0.199351 0.198818 0  0.298946 0.09553200000000001 0  0.902465 0.795949 0  0.121139 0.791477 0  0.906269 0.112287 0  0.056109 0.822332 0  0.512172 0.13237 0  0.940964 0.741805 0  0.888887 0.408777 0  0.354543 0.825964 0  0.808736 0.068638 0  0.068507 0.394071 0  0.719105 0.563843 0  0.247287 0.149664 0  0.293062 0.237128 0  0.240524 0.434997 0  0.141255 0.623289 0  0.945202 0.160621 0  0.502914 0.247629 0  0.144669 0.480811 0  0.665025 0.060817 0  0.728047 0.224344 0  0.861995 0.313312 0  0.200068 0.534235 0  0.253262 0.965623 0  0.893804 0.49307 0  0.604391 0.572456 0  0.947088 0.345347 0  0.439372 0.227307 0  0.629847 0.159823 0  0.273405 0.880181 0  0.302744 0.776823 0  0.781502 0.295365 0  0.275342 0.349602 0  0.7283849999999999 0.472798 0  0.229136 0.246478 0  0.807794 0.480346 0  0.709476 0.112786 0  0.275506 0.694991 0  0.771674 0.394419 0  0.449715 0.861802 0  0.419159 0.799696 0  0.674851 0.503139 0  0.280443 0.61016 0  0.572443 0.192538 0  0.393113 0.87525 0  0.405555 0.948428 0  0.330942 0.934103 0  0.540509 0.597101 0  0.312763 0.6689310000000001 0  0.254368 0.540179 0  0.595265 0.25915 0  0.606679 0.234099 0  0.657131 0.279138 0  0.722458 0.279478 0  0.333 0.308056 0  0.351529 0.246142 0  0.455714 0.7257940000000001 0  0.585239 0.295143 0  0.340062 0.72492 0  0.545593 0.293773 0  0.555449 0.545426 0  0.414311 0.737314 0  0.590854 0.502323 0  0.350507 0.368444 0  0.484423 0.625665 0  0.483899 0.674542 0  0.378137 0.317274 0  0.446416 0.646404 0  0.373532 0.347654 0  0.446876 0.619769 0  0.466106 0.666068 0  0.437545 0.609254 0  0.434988 0.565726 0  0.41462 0.656829 0  0.418803 0.556961 0  0.398425 0.327446 0  0.517803 0.310421 0  0.549516 0.322918 0  0.57701 0.842889 0  0.8291269999999999 0.773906 0  0.643235 0.684732 0  0.134281 0.207734 0  0.865997 0.055966 0  0.680959 0.723345 0  0.165229 0.8415550000000001 0  0.54558 0.959672 0  0.783726 0.656439 0  0.913315 0.595533 0  0.699439 0.860667 0  0.785839 0.125076 0  0.551673 0.037713 0  0.9200970000000001 0.223214 0  0.206406 0.299726 0  0.087064 0.596401 0  0.935644 0.394252 0  0.964557 0.252582 0  0.230124 0.928346 0  0.120579 0.271764 0  0.8572149999999999 0.524082 0  0.7670979999999999 0.5551469999999999 0  0.936094 0.507131 0  0.804064 0.59585 0  0.700565 0.608273 0  0.429773 0.174231 0  0.117746 0.727333 0  0.5389620000000001 0.730231 0  0.862761 0.359173 0  0.821444 0.284046 0  0.193552 0.35818 0  0.234923 0.505555 0  0.193209 0.421217 0  0.220144 0.755896 0  0.594015 0.131642 0  0.283813 0.195855 0  0.517519 0.213961 0  0.553509 0.639116 0  0.280391 0.378018 0  0.852183 0.436817 0  0.746983 0.197173 0  0.821806 0.221318 0  0.449853 0.828453 0  0.883758 0.453926 0  0.183484 0.589542 0  0.348384 0.129314 0  0.255254 0.838525 0  0.504849 0.798516 0  0.320344 0.863432 0  0.611669 0.525425 0  0.265864 0.804962 0  0.72056 0.521442 0  0.613372 0.6101220000000001 0  0.481262 0.881068 0  0.655778 0.191988 0  0.701921 0.196918 0  0.5658260000000001 0.5731810000000001 0  0.46914 0.240927 0  0.343219 0.173284 0  0.888786 0.278502 0  0.244113 0.6750930000000001 0  0.739546 0.417914 0  0.784023 0.355942 0  0.326805 0.265549 0  0.248616 0.6
[...]
<PointData  Vectors="f_303-0"> 
<DataArray  type="Float64"  Name="f_303-0"  NumberOfComponents="3" format="ascii">-7.5513284867264389e-16 -4.7192357022361863e-16 0.0000000000000000e+00  0.0000000000000000e+00 0.0000000000000000e+00 0.0000000000000000e+00  0.0000000000000000e+00 4.2469256808662749e-14 0.0000000000000000e+00  0.0000000000000000e+00 -1.8630142705581634e-14 0.0000000000000000e+00  0.0000000000000000e+00 4.2926676695282959e-15 0.0000000000000000e+00  0.0000000000000000e+00 5.8377548846162057e-16 0.0000000000000000e+00  0.0000000000000000e+00 0.0000000000000000e+00 0.0000000000000000e+00  1.8957354047684250e-16 0.0000000000000000e+00 0.0000000000000000e+00  0.0000000000000000e+00 0.0000000000000000e+00 0.0000000000000000e+00  4.5830105216141102e-16 0.0000000000000000e+00 0.0000000000000000e+00  0.0000000000000000e+00 0.0000000000000000e+00 0.0000000000000000e+00  3.0658530970502649e-16 -1.8210833358593939e-15 0.0000000000000000e+00  -4.5990813784855824e-16 -7.0360079766271382e-17 0.0000000000000000e+00  0.0000000000000000e+00 5.7446670449969582e-15 0.0000000000000000e+00  -7.5210747718428419e-15 0.0000000000000000e+00 0.0000000000000000e+00  1.6930497252807536e-16 0.0000000000000000e+00 0.0000000000000000e+00  0.0000000000000000e+00 0.0000000000000000e+00 0.0000000000000000e+00  -5.2576388377453844e-15 0.0000000000000000e+00 0.0000000000000000e+00  1.4034117020580996e-14 -4.8254100208986006e-15 0.0000000000000000e+00  -8.5177944979508398e-15 0.0000000000000000e+00 0.0000000000000000e+00  -1.9982016155537282e-16 0.0000000000000000e+00 0.0000000000000000e+00  3.4455281068041993e-17 0.0000000000000000e+00 0.0000000000000000e+00  0.0000000000000000e+00 0.0000000000000000e+00 0.0000000000000000e+00  0.0000000000000000e+00 0.0000000000000000e+00 0.0000000000000000e+00  0.0000000000000000e+00 0.0000000000000000e+00 0.0000000000000000e+00  0.0000000000000000e+00 0.0000000000000000e+00 0.0000000000000000e+00  1.6398138215107594e-14 0.0000000000000000e+00 0.0000000000000000e+00  4.3701689185216794e-15 -2.9860759080770270e-15 0.0000000000000000e+00  0.0000000000000000e+00 5.0666062568796319e-15 0.0000000000000000e+00  0.0000000000000000e+00 0.0000000000000000e+00 0.0000000000000000e+00  0.0000000000000000e+00 0.0000000000000000e+00 0.0000000000000000e+00  3.3571730734324761e-14 7.6174743524569786e-14 0.0000000000000000e+00  0.0000000000000000e+00 0.0000000000000000e+00 0.0000000000000000e+00  0.0000000000000000e+00 0.0000000000000000e+00 0.0000000000000000e+00  0.0000000000000000e+00 8.6205091897058056e-15 0.0000000000000000e+00  1.4678709828360798e-14 -1.9125454799089689e-15 0.0000000000000000e+00  -4.7321836425570489e-15 0.0000000000000000e+00 0.0000000000000000e+00  -1.0178519387535176e-14 0.0000000000000000e+00 0.0000000000000000e+00  1.4568903782758366e-15 0.0000000000000000e+00 0.0000000000000000e+00  0.0000000000000000e+00 0.0000000000000000e+00 0.0000000000000000e+00  -6.1431363392655742e-15 0.0000000000000000e+00 0.0000000000000000e+00  -2.2888088728952790e-14 -1.0094894533251447e-14 0.0000000000000000e+00  0.0000000000000000e+00 -7.7209439272109362e-15 0.0000000000000000e+00  2.5570354379644737e-15 0.0000000000000000e+00 0.0000000000000000e+00  1.2995559061000518e-15 0.0000000000000000e+00 0.0000000000000000e+00  6.6667341488425574e-15 0.0000000000000000e+00 0.0000000000000000e+00  0.0000000000000000e+00 0.0000000000000000e+00 0.0000000000000000e+00  0.0000000000000000e+00 0.0000000000000000e+00 0.0000000000000000e+00  0.0000000000000000e+00 -1.8449634894407379e-15 0.0000000000000000e+00  1.3843715296109550e-14 -2.2072370112960909e-14 0.0000000000000000e+00  0.0000000000000000e+00 0.0000000000000000e+00 0.0000000000000000e+00  -8.4436600704845383e-16 0.0000000000000000e+00 0.0000000000000000e+00  0.0000000000000000e+00 0.0000000000000000e+00 0.0000000000000000e+00  0.0000000000000000e+00 1.0761325656898862e-15 0.0000000000000000e+00  0.0000000000000000e+00 -8.3149446902073609e-15 0.0000000000000000e+00  0.0000000000000000e+00 3.2293315501211540e-16 0.0000000000000000e+00  0.0000000000000000e+00 1.2239207575124218e-15 0.0000000000000000e+00  4.9207528908353929e-14 -3.1837337726061070e-14 0.0000000000000000e+00  0.0000000000000000e+00 0.0000000000000000e+00 0.0000000000000000e+00  -5.0265183306312360e-15 1.4118542711935072e-15 0.0000000000000000e+00  0.0000000000000000e+00 0.0000000000000000e+00 0.0000000000000000e+00  3.9386096110503639e-15 0.0000000000000000e+00 0.0000000000000000e+00  -2.0954306266813151e-15 0.0000000000000000e+00 0.0000000000000000e+00  -1.1023563163595723e-16 0.0000000000000000e+00 0.0000000000000000e+00  -2.7816253260378359e-15 0.0000000000000000e+00 0.0000000000000000e+00  0.0000000000000000e+00 0.0000000000000000e+00 0.0000000000000000e+00  7.0266198695082925e-15 0.0000000000000000e+00 0.0000000000000000e+00  0.0000000000000000e+00 0.0000000000000000e+00 0.0000000000000000e+00  0.0000000000000000e+00 0.0000000000000000e+00 0.0000000000000000e+00  0.0000000000000000e+00 3.2206390541360135e-15 0.0000000000000000e+00  0.0000000000000000e+00 -2.3992572403292016e-14 0.0000000000000000e+00  0.0000000000000000e+00 1.5984622838661839e-14 0.0000000000000000e+00  0.0000000000000000e+00 -5.9772050091816918e-15 0.0000000000000000e+00  0.0000000000000000e+00 4.9059850191341715e-15 0.0000000000000000e+00  0.0000000000000000e+00 8.9071361011865254e-16 0.0000000000000000e+00  0.0000000000000000e+00 5.1891352067528653e-15 0.0000000000000000e+00  0.0000000000000000e+00 -4.8125342743249387e-16 0.0000000000000000e+00  1.0000000000000003e+02 0.0000000000000000e+00 0.0000000000000000e+00  1.0000000000000006e+02 0.0000000000000000e+00 0.0000000000000000e+00  0.0000000000000000e+00 0.0000000000000000e+00 0.0000000000000000e+00  0.0000000000000000e+00 0.0000000000000000e+00 0.0000000000000000e+00  -1.0658841716041614e-15 -2.2439079536729619e-16 0.0000000000000000e+00  -6.6401131462341661e-16 6.6397189280866872e-16 0.0000000000000000e+00  0.0000000000000000e+00 2.0553526843980949e-15 0.0000000000000000e+00  0.0000000000000000e+00 0.0000000000000000e+00 0.0000000000000000e+00  -2.9318139179441353e-15 1.6180392485940112e-14 0.0000000000000000e+00  0.0000000000000000e+00 1.4759018211578138e-14 0.0000000000000000e+00  1.1875529075615419e-14 9.6017642674672383e-15 0.0000000000000000e+00  0.0000000000000000e+00 -1.5951740994621230e-15 0.0000000000000000e+00  0.0000000000000000e+00 5.6269224541357825e-16 0.0000000000000000e+00  0.0000000000000000e+00 4.6316323854181699e-15 0.0000000000000000e+00  -3.6814549874508155e-15 0.0000000000000000e+00 0.0000000000000000e+00  -1.4417137559314358e-14 -7.2265581642735064e-15 0.0000000000000000e+00  -9.5824070244699880e-18 5.2957658965808140e-16 0.0000000000000000e+00  2.6488865297445019e-15 2.1731073423969708e-15 0.0000000000000000e+00  -2.6905615080314211e-18 0.0000000000000000e+00 0.0000000000000000e+00  0.0000000000000000e+00 0.0000000000000000e+00 0.0000000000000000e+00  0.0000000000000000e+00 0.0000000000000000e+00 0.0000000000000000e+00  0.0000000000000000e+00 -4.7215924801575726e-16 0.0000000000000000e+00  -8.0110496818590300e-17 -7.3938573961547791e-17 0.0000000000000000e+00  -1.4052490507624657e-15 0.0000000000000000e+00 0.0000000000000000e+00  -8.8235104707184874e-16 0.0000000000000000e+00 0.0000000000000000e+00  -3.4314610901072664e-16 0.0000000000000000e+00 0.0000000000000000e+00  6.7907150288414151e-15 -1.2442251498471423e-14 0.0000000000000000e+00  4.5298422253009144e-16 0.0000000000000000e+00 0.0000000000000000e+00  4.9444649597286095e-14 0.0000000000000000e+00 0.0000000000000000e+00  0.0000000000000000e+00 0.0000000000000000e+00 0.0000000000000000e+00  0.0000000000000000e+00 0.0000000000000000e+00 0.0000000000000000e+00  2.0775641334260822e-14 -3.5787199291547276e-15 0.0000000000000000e+00  0.0000000000000000e+00 -1.8075666623735982e-15 0.0000000000000000e+00  -1.5731070221905626e-15 0.0000000000000000e+00 0.0000000000000000e+00  -5.9314300132148319e-16 0.0000000000000000e+00 0.0000000000000000e+00  0.0000000000000000e+00 0.0000000000000000e+00 0.0000000000000000e+00  -5.6347322404147022e-15 0.0000000000000000e+00 0.0000000000000000e+00  0.0000000000000000e+00 0.0000000000000000e+00 0.0000000000000000e+00  0.0000000000000000e+00 -2.0774565617294704e-14 0.0000000000000000e+00  3.2383517933905166e-15 0.0000000000000000e+00 0.0000000000000000e+00  0.0000000000000000e+00 2.5847565647085270e-15 0.0000000000000000e+00  0.0000000000000000e+00 -8.6447448956079404e-15 0.0000000000000000e+00  -3.6875544663088911e-15 0.0000000000000000e+00 0.0000000000000000e+00  -1.8600980148487390e-15 0.0000000000000000e+00 0.0000000000000000e+00  4.0824302145461181e-15 0.0000000000000000e+00 0.0000000000000000e+00  0.0000000000000000e+00 0.0000000000000000e+00 0.0000000000000000e+00  3.9762432179627494e-16 0.0000000000000000e+00 0.0000000000000000e+00  0.0000000000000000e+00 9.7383186792685266e-15 0.0000000000000000e+00  0.0000000000000000e+00 -8.3860445095853022e-15 0.0000000000000000e+00  0.0000000000000000e+00 3.5307721737162030e-15 0.0000000000000000e+00  0.0000000000000000e+00 1.3549717348157740e-15 0.0000000000000000e+00  0.0000000000000000e+00 5.3258522666701802e-15 0.0000000000000000e+00  0.0000000000000000e+00 1.4998483293473304e-15 0.0000000000000000e+00  -2.1109417343909335e-15 1.8394132054648074e-15 0.0000000000000000e+00  1.0000000000000003e+02 0.0000000000000000e+00 0.0000000000000000e+00  1.0000000000000000e+02 0.0000000000000000e+00 0.0000000000000000e+00  1.0000000000000001e+02 0.0000000000000000e+00 0.0000000000000000e+00  1.0000000000000000e+02 2.1824008675051141e-14 0.0000000000000000e+00  1.0000000000000000e+02 0.0000000000000000e+00 0.0000000000000000e+00  9.9999999999999858e+01 0.0000000000000000e+00 0.0000000000000000e+00  1.0000000000000007e+02 0.0000000000000000e+00 0.0000000000000000e+00  1.0000000000000003e+02 0.0000000000000000e+00 0.0000000000000000e+00  9.9999999999999901e+01 0.0000000000000000e+00 0.0000000000000000e+00  0.0000000000000000e+00 -4.6039454986112339e-14 0.0000000000000000e+00  0.0000000000000000e+00 -5.8047584294294843e-14 0.0000000000000000e+00  0.0000000000000000e+00 0.0000000000000000e+00 0.0000000000000000e+00  0.0000000000000000e+00 -3.0212531035816750e-14 0.0000000000000000e+00  0.0000000000000000e+00 -4.7799546696409127e-15 0.0000000000000000e+00  0.0000000000000000e+00 -1.3981841543813736e-14 0.0000000000000000e+00  0.0000000000000000e+00 7.7306639448770357e-15 0.0000000000000000e+00  0.0000000000000000e+00 -1.8511802767249020e-16 0.0000000000000000e+00  0.0000000000000000e+00 1.7889895079869023e-15 0.0000000000000000e+00  0.0000000000000000e+00 1.5889455424412673e-14 0.0000000000000000e+00  0.0000000000000000e+00 4.8957379295217394e-15 0.0000000000000000e+00  0.0000000000000000e+00 -2.5618570756668651e-14 0.0000000000000000e+00  0.0000000000000000e+00 5.7137017381576851e-14 0.0000000000000000e+00  0.0000000000000000e+00 8.5924137489227430e-15 0.0000000000000000e+00  0.0000000000000000e+00 1.3521726422800991e-14 0.0000000000000000e+00  0.0000000000000000e+00 -7.7695644368153712e-14 0.0000000000000000e+00  0.0000000000000000e+00 0.0000000000000000e+00 0.0000000000000000e+00  0.0000000000000000e+00 -8.9555137021957411e-15 0.0000000000000000e+00  8.6569835078030223e+01 -1.6055386204780032e+01 0.0000000000000000e+00  1.2605206455999466e+02 -3.3436468779828481e+01 0.0000000000000000e+00  1.1813014042849221e+02 -3.5614319400720312e+01 0.0000000000000000e+00  9.5725722112192827e+01 -2.0074248237968455e+01 0.0000000000000000e+00  8.6793563597101752e+01 5.4689493030876326e+00 0.0000000000000000e+00  1.0058207282591428e+02 3.1844854684278367e+01 0.0000000000000000e+00  1.2904560000210768e+02 4.8698310281736539e+01 0.0000000000000000e+00  1.4203129319198780e+02 4.5407043989407235e+01 0.0000000000000000e+00  9.9578329791619240e+01 2.2462309728637088e+01 0.0000000000000000e+00  -1.4479584804801075e-14 3.5721686260497357e-15 0.0000000000000000e+00  1.3465798904620993e+02 -4.4298982071088062e+01 0.0000000000000000e+00  1.3339495580833827e+02 8.7462475773691551e+01 0.0000000000000000e+00  1.2568623298852371e+02 -7.0234040206997079e+01 0.0000000000000000e+00  2.0926342003301568e+02 2.7586881947029770e+01 0.0000000000000000e+00  2.2458890214285898e+02 1.8845582104441998e+01 0.0000000000000000e+00  6.1866811220844028e+01 3.0793562209822984e+00 0.0000000000000000e+00  2.5857246852123052e+02 -8.0629059859625670e+01 0.0000000000000000e+00  5.1389101794516272e+01 2.5928455390609198e+01 0.0000000000000000e+00  2.2477658016511731e+02 -5.1854204842084897e+01 0.0000000000000000e+00  3.0158816871292686e+02 2.5185923334929235e+01 0.0000000000000000e+00  7.0234171926895300e+01 -8.7368318913144627e+00 0.0000000000000000e+00  8.3440689757906839e+01 1.1554166133917848e+01 0.0000000000000000e+00  1.0445769636213949e+02 3.1084759618015013e+01 0.0000000000000000e+00  1.0610095598672764e+02 -2.3558479291616447e+01 0.0000000000000000e+00  4.7007806608268343e-01 -6.0591588511939882e+00 0.0000000000000000e+00  -1.5762335411348988e-01 -9.8291042210865232e-01 0.0000000000000000e+00  -1.6150906879266590e-02 3.7743320216936810e-01 0.0000000000000000e+00  4.5217538500596536e-03 -9.0359487332934100e-04 0.0000000000000000e+00  3.3439402611985547e+00 -3.9071595083168149e+00 0.0000000000000000e+00  -2.2596234152563341e-01 9.1349724407219879e-01 0.0000000000000000e+00  5.2336271782608730e+00 1.2927846287459190e+00 0.0000000000000000e+00  6.5915263204435689e+01 -3.1744487744421701e+01 0.0000000000000000e+00  1.2807051353229488e+02 3.7614237628563503e+00 0.0000000000000000e+00  1.8413439899461341e+02 -5.3419189867039442e+01 0.0000000000000000e+00  1.0084989032809972e+02 -2.3707047592811406e+01 0.0000000000000000e+00  7.1020139895993481e+01 -5.2515074360986368e+01 0.0000000000000000e+00  1.3603369745668411e+02 6.9127117156598999e+01 0.0000000000000000e+00  1.5012721499836519e+02 -3.7557679051126591e+01 0.0000000000000000e+00  2.1368492107106613e+02 6.9552061070261814e+01 0.0000000000000000e+00  2.2900635052622013e+02 9.9649633118838530e+00 0.0000000000000000e+00  1.4618077579684862e+02 9.3537612790195439e+00 0.0000000000000000e+00  5.6225016156566703e+01 5.7411905880691137e+01 0.0000000000000000e+00  2.0376109532806404e+02 1.0784861553266904e+01 0.0000000000000000e+00  1.9239499191628960e+02 1.5799628905158892e+01 0.0000000000000000e+00  8.5771738957899828e+01 -7.9021179322179350e+01 0.0000000000000000e+00  1.1567252642137609e+02 1.1066954501181637e+02 0.0000000000000000e+00  1.4223398346634164e+02 5.7140498190814768e+01 0.0000000000000000e+00  1.2925374946246055e+02 -4.3409017618550898e+01 0.0000000000000000e+00  2.7441923364813476e+02 -2.8539181130366966e+01 0.0000000000000000e+00  8.8645326742280773e+01 1.6755169471317469e+01 0.0000000000000000e+00  1.5251208064798109e+02 1.4784191754717241e+01 0.0000000000000000e+00  3.2130692769938541e+01 3.2133157831031895e+01 0.0000000000000000e+00  4.9961879274550476e+01 -2.5432461323530450e+01 0.0000000000000000e+00  1.7166352253024456e+02 -7.7506667472802022e+01 0.0000000000000000e+00  6.8734187405767884e+01 1.4913568825974819e+01 0.0000000000000000e+00  2.0672294004793943e+02 -5.6925554793123133e+01 0.0000000000000000e+00  1.6137246116337622e+02 2.3600496861904814e+00 0.0000000000000000e+00  1.7070629598005420e+00 -5.5932791918764684e+00 0.0000000000000000e+00  1.8958063710466877e+00 -3.1474066016981439e+00 0.0000000000000000e+00  -4.0603650749365872e-01 1.7615751355276015e+00 0.0000000000000000e+00  2.0880690261430224e+00 -7.9802104458383631e+00 0.0000000000000000e+00  3.6521297592485764e+00 -1.8435538458461952e+01 0.0000000000000000e+00  -2.1982811540740808e-02 1.4120687138485867e-02 0.0000000000000000e+00  -2.6849290984613811e-01 7.2223881854518279e-01 0.0000000000000000e+00  2.3347228065461970e-03 8.9676547517468356e-04 0.0000000000000000e+00  2.0565273875909176e+00 -1.5869808936631873e+00 0.0000000000000000e+00  4.1433516687211303e-01 3.1697830169883523e-01 0.0000000000000000e+00  6.8199783644319101e-01 -8.6094009712328312e-01 0.0000000000000000e+00  3.5474463039163642e-02 9.4497719905693139e-02 0.0000000000000000e+00  1.9118434959673901e-03 -2.9861258957276766e-03 0.0000000000000000e+00  2.4890114534559019e-03 7.1514830226629420e-03 0.0000000000000000e+00  -7.4423204061683235e-01 7.5417225704663060e-01 0.0000000000000000e+00  4.8472162189040435e-02 3.6964860041561265e-01 0.0000000000000000e+00  -1.7539181739577364e-01 2.8968500112908158e-01 0.0000000000000000e+00  8.9439074992284411e+00 3.2211055880691455e+00 0.0000000000000000e+00  4.1267910351650663e+00 6.7284246238658152e-01 0.0000000000000000e+00  1.9483790923023905e+00 5.9744539716119116e-01 0.0000000000000000e+00  1.4522347365896175e+02 -8.9258943693712254e+01 0.0000000000000000e+00  1.1574075183038531e+02 -7.2332527688950998e+00 0.0000000000000000e+00  1.0770172896075138e+02 5.3141850017875448e+01 0.0000000000000000e+00  8.2521494517637123e+01 5.1680453805284742e+01 0.0000000000000000e+00  1.4855051961301436e+02 3.9419340141399886e+01 0.0000000000000000e+00  1.0733965142673148e+02 -7.4235358726838818e+00 0.0000000000000000e+00  8.8517197211334349e+01 -7.0113516945383028e+00 0.0000000000000000e+00  8.4927200569978382e+01 -4.1056193666128237e+01 0.0000000000000000e+00  1.3117962382462704e+02 -1.7278502923844162e+01 0.0000000000000000e+00  7.0787366756176439e+01 -9.9256433239890196e+00 0.0000000000000000e+00  1.7335365816060911e+02 -8.0585954162952063e+01 0.0000000000000000e+00  1.0071538167117951e+02 -3.9333648658144639e+01 0.0000000000000000e+00  1.3914580633932317e+02 2.3079611456669259e+01 0.0000000000000000e+00  1.7807526711220922e+02 -3.2571383099486994e+01 0.0000000000000000e+00  1.2730938598763426e+02 -2.9877287321893093e+01 0.0000000000000000e+00  2.0053669674121636e+02 2.9042644407701570e+01 0.0000000000000000e+00  1.1393942733553295e+02 2.7025270377597689e+01 0.0000000000000000e+00  1.7637993594845165e+02 7.1996848455417330e+00 0.0000000000000000e+00  2.5193470810984823e+02 1.0452901800986888e+02 0.0000000000000000e+00  1.6164955808956319e+02 6.8084581038320337e+01 0.0000000000000000e+00  1.2308264329342710e+02 5.8677836172498479e+00 0.0000000000000000e+00  1.7329862651937111e+02 -7.3634636249515601e+00 0.0000000000000000e+00  1.8864451474029796e+01 -6.2531454463832326e+00 0.0000000000000000e+00  9.2232160365411715e+01 1.0285278121452167e+01 0.0000000000000000e+00  2.8054026423764590e+01 -3.4022816145504969e+01 0.0000000000000000e+00  2.8648479563539009e+01 -3.4597616686404734e+01 0.0000000000000000e+00  1.9814487234322050e+02 2.4116200473171467e+01 0.0000000000000000e+00  2.9943192847858063e+02 -4.9900132224360277e+01 0.0000000000000000e+00  3.8016647148255842e+01 -2.5008282727955613e+01 0.0000000000000000e+00  9.7010217888632923e+01 -1.3897403353961147e+01 0.0000000000000000e+00  2.5047447132875686e+01 4.0942323978992746e+01 0.0000000000000000e+00  1.9149948778287818e+01 -4.6959980180783596e+00 0.0000000000000000e+00  2.0337035661921530e+02 1.3538752248514308e+01 0.0000000000000000e+00  2.3384650032372690e+01 3.0932074277813562e+01 0.0000000000000000e+00  9.1271247428400656e+01 8.4169045612436022e+01 0.0000000000000000e+00  2.1703299523478304e+02 1.7455718570227134e+01 0.0000000000000000e+00  1.2862687019863301e+02 3.7756226296265272e+00 0.0000000000000000e+00  1.3393352616969443e+02 1.2220480188262297e+01 0.0000000000000000e+00  1.6182341324422379e+02 -8.7081941304765547e+00 0.0000000000000000e+00  5.8782559034601917e+01 7.2713800579670959e+01 0.0000000000000000e+00  2.6762098302256618e+02 4.9156077276051635e-01 0.0000000000000000e+00  3.5392194391219142e+01 -5.6006912324137154e+01 0.0000000000000000e+00  4.1006224688068279e+01 7.1781222605386105e+01 0.0000000000000000e+00  8.0486061379822061e+01 6.9129669578942607e+00 0.0000000000000000e+00  6.4030009611310348e+01 -3.6092314588203209e+01 0.0000000000000000e+00  1.7518557070164360e+02 -7.6816502698261413e+00 0.0000000000000000e+00  6.0585187201855959e+00 -3.5767296418576255e+00 0.0000000000000000e+00  -1.7051319744