<?xml version="1.0"?>
<VTKFile type="UnstructuredGrid"  version="0.1"  >
<UnstructuredGrid>
<Piece  NumberOfPoints="4269" NumberOfCells="8234">
<Points>
<DataArray  type="Float64"  NumberOfComponents="3"  format="ascii">0 1 0  0 0 0  7.5 0 0  7.5 1 0  1.197537668119028 0.5812868930080463 0  1.2 0.55 0  1.197537668119028 0.5187131069919538 0  1.190211303259031 0.4881966011250105 0  1.178201304837674 0.4592019000520907 0  1.161803398874989 0.4324429495415054 0  1.141421356237309 0.4085786437626905 0  1.117557050458495 0.3881966011250105 0  1.090798099947909 0.3717986951623264 0  1.06180339887499 0.3597886967409693 0  1.031286893008046 0.3524623318809725 0  1 0.35 0  0.9687131069919538 0.3524623318809725 0  0.9381966011250105 0.3597886967409694 0  0.9092019000520906 0.3717986951623264 0  0.8824429495415054 0.3881966011250105 0  0.8585786437626904 0.4085786437626905 0  0.8381966011250105 0.4324429495415054 0  0.8217986951623264 0.4592019000520907 0  0.8097886967409692 0.4881966011250107 0  0.8024623318809725 0.5187131069919539 0  0.8 0.55 0  0.8024623318809725 0.5812868930080463 0  0.8097886967409693 0.6118033988749896 0  0.8217986951623264 0.6407980999479095 0  0.8381966011250105 0.6675570504584947 0  0.8585786437626906 0.6914213562373096 0  0.8824429495415054 0.7118033988749896 0  0.9092019000520907 0.7282013048376736 0  0.9381966011250106 0.7402113032590307 0  0.9687131069919539 0.7475376681190276 0  1 0.75 0  1.031286893008046 0.7475376681190276 0  1.06180339887499 0.7402113032590307 0  1.090798099947909 0.7282013048376736 0  1.117557050458495 0.7118033988749896 0  1.141421356237309 0.6914213562373095 0  1.161803398874989 0.6675570504584947 0  1.178201304837674 0.6407980999479094 0  1.190211303259031 0.6118033988749896 0  3.75 0 0  3.75 1 0  1.875 0 0  1.875 1 0  0.9375 0 0  0.9375 1 0  1.40625 1 0  5.625 1 0  5.625 0 0  2.8125 1 0  2.8125 0 0  4.6875 0 0  4.6875 1 0  6.5625 0 0  6.5625 1 0  5.15625 0.5 0  4.21875 0.5 0  2.34375 0.5 0  3.28125 0.5 0  6.09375 0.5 0  7.5 0.5 0  6.897916666666666 0.5 0  1.842708333333333 0.5 0  0 0.5 0  0.46875 0 0  5.625 0.5302734375 0  7.03125 0 0  6.09375 1 0  2.8125 0.4697265625 0  3.28125 0 0  2.34375 1 0  2.34375 0 0  3.75 0.4697265625 0  4.21875 0 0  4.21875 1 0  4.6875 0.5302734375 0  3.28125 1 0  5.15625 0 0  6.09375 0 0  5.15625 1 0  0.46875 1 0  1.40625 0 0  7.03125 1 0  0.3954638734376499 0.5975780249976004 0  6.495833333333334 0.4072265624999998 0  5.859375 0.25 0  4.905729166666666 0.26513671875 0  4.453125 0.25 0  3.531770833333333 0.73486328125 0  3.968229166666667 0.73486328125 0  2.594270833333333 0.73486328125 0  3.030729166666667 0.73486328125 0  6.328125 0.75 0  7.198958333333334 0.3125000000000002 0  7.198958333333334 0.6874999999999998 0  5.390625 0.25 0  0 0.25 0  2.109375 0.75 0  2.109375 0.25 0  1.51921323205749 0.3418883887525936 0  1.522346610178253 0.6811769608297746 0  5.375456746419271 0.75 0  4.921875 0.76513671875 0  4.437956746419271 0.75 0  3.984375 0.23486328125 0  3.500456746419271 0.25 0  2.578125 0.23486328125 0  3.046875 0.23486328125 0  5.874543253580729 0.75 0  6.642123189445656 0.6909095493086836 0  6.746354166666666 0.2391688368055553 0  0.3197109619185111 0.2850049285972083 0  6.328125 0 0  0.6313375889370429 0.2351325552547357 0  0 0.75 0  6.252283381534729 0.2693808819694041 0  0.234375 1 0  6.948437500000001 0.7543055555555555 0  0.5934018769555939 0.7694151657947577 0  1.858854166666667 0.75 0  1.858854166666667 0.25 0  1.640625 0 0  2.093229166666667 0.5 0  7.5 0.25 0  3.282227579752604 0.75 0  7.5 0.75 0  1.171875 0 0  1.303539853147731 0.2235426933121065 0  5.148177083333333 0.2575683593749998 0  2.351822916666667 0.742431640625 0  1.640625 1 0  4.202380413457425 0.7645435094236485 0  3.047822985053062 0.4701848030090332 0  2.577177014946938 0.4701848030090332 0  4.672792740482199 0.76513671875 0  4.922822985053062 0.5298151969909668 0  5.390593497949761 0.5156244924311331 0  5.610292740482199 0.76513671875 0  3.516602579752604 0.5 0  4.45496853898097 0.4865915990446593 0  5.85753146101903 0.4865915990446593 0  3.749511210123698 0.23486328125 0  3.983397420247396 0.4999999999999999 0  2.343497975411212 0.2346270081980111 0  4.219002024588788 0.2346270081980111 0  0.703125 0 0  2.8125 0.2343755075688669 0  3.046875 0 0  2.578125 0 0  3.515625 0 0  3.984375 0 0  4.453125 1 0  5.390625 1 0  2.109375 0 0  2.109375 1 0  5.625 0.2921402030705575 0  5.390625 0 0  7.265625 0 0  6.796875 0 0  6.328125 1 0  3.046875 1 0  2.578125 1 0  3.984375 1 0  3.515625 1 0  4.453125 0 0  4.921875 0 0  5.859375 0 0  0.703125 1 0  1.171875 1 0  7.265625 1 0  4.921875 1 0  5.859375 1 0  0.234375 0 0  6.796875 1 0  6.980310975276531 0.2285890127127066 0  5.149170481934885 0.772689292163473 0  3.274170481934884 0.2273107078365268 0  6.101334126790364 0.7722468376159667 0  4.678005340872584 0.3000799877067239 0  2.8125 0.6921051326382495 0  3.75 0.6921051326382495 0  0.3515624999999999 0.8134571721668546 0  0.4990405774417521 0.4070099317153735 0  0.1789273931360182 0.625 0  6.31239060814315 0.5298877111157968 0  6.456979773992304 0.1917956348713352 0  6.699870808919271 0.4406293402777773 0  1.337539480965883 0.7944303676599538 0  6.058675797563041 0.2019812164653516 0  0.8203125 0.1643029084422534 0  0.1480856513011711 0.375 0  1.090769294689562 0.1719186776982972 0  7.291088163206459 0.5 0  7.094502414936563 0.5197902199074071 0  0.6046212059042245 0.5730066483871106 0  1.707231580809486 0.6342709161352207 0  1.685961352504593 0.8193269193390785 0  1.374721602852827 0.4600373025865813 0  6.486415510043844 0.5916440776477192 0  1.5234375 0.1508863828685116 0  1.707925830421689 0.3657739208189008 0  0.1674513225045584 0.8278776664019765 0  7.138268756771176 0.1438183366439137 0  7.1484375 0.8616388888888887 0  7.328562530764119 0.819498462930605 0  4.101073710123698 0.3678637200736647 0  1.693878467219965 0.1911955120941053 0  1.577566745468488 0.5110082404081502 0  6.6796875 0.8653871806883484 0  6.498039504430512 0.825568433346395 0  0.7562556668576472 0.8333197949571929 0  4.101045914668806 0.6255195807449272 0  5.030745188395182 0.382829047309028 0  2.476364945868651 0.6095868094762166 0  2.729359843907322 0.8460525663191247 0  2.9296875 0.8740763101564099 0  3.163518307559356 0.6254622797994247 0  3.666859843907322 0.8460525663191247 0  3.8671875 0.8740763101564099 0  4.8046875 0.12592368984359 0  3.14936031382311 0.8606990583876851 0  2.4609375 0.8747622921397776 0  5.023140791101972 0.1392266772452574 0  0 0.125 0  0.1759922923594607 0.1727589856739889 0  4.5703125 0.125 0  7.327755777818006 0.1766156770456191 0  5.5078125 0.125 0  5.719712725029036 0.1460701015352787 0  4.327848962028002 0.3674169956512513 0  5.982681121544351 0.3692637923021713 0  3.398926289876302 0.6245417594909667 0  5.281756792511996 0.3827993367299961 0  2.226822645963271 0.6252438868405666 0  2.234390064317166 0.8676616584526566 0  5.2734375 0.125 0  1.96796875 0.382568359375 0  2.234651037971999 0.3674169956512511 0  1.984114583333333 0.132568359375 0  1.9921875 0.875 0  1.984114583333333 0.632568359375 0  5.748733794462357 0.8678269127183313 0  3.3984375 0.875456329184688 0  1.512925924995415 0.8582958012121853 0  1.359299372802969 0.6275861864990343 0  4.810521420483513 0.4041767793635395 0  0.2996213306116602 0.455339710363317 0  5.999933717403708 0.6388425470751088 0  5.250033449003657 0.6388713364551682 0  3.631676045992918 0.3525406652400928 0  4.3359375 0.8816499670325881 0  4.343577437052484 0.6116511299909198 0  3.375033449003656 0.3611286635448316 0  5.763152151652243 0.6249404690537395 0  4.549347848347757 0.6249404690537396 0  5.5004588702411 0.6403667365776566 0  5.976118394847484 0.8816230218343086 0  5.054722486865804 0.6338007028640954 0  3.164542163493752 0.3520519332736524 0  2.445407482032355 0.3672168403687257 0  4.8046875 0.882568359375 0  4.1015625 0.117431640625 0  2.4609375 0.117431640625 0  2.695556894938151 0.3520510350344335 0  2.929443105061849 0.3520510350344335 0  3.881979231817319 0.3670559016511187 0  3.8671875 0.117431640625 0  4.805389247695744 0.6470047893641744 0  3.399370721942191 0.1184066543556767 0  5.274370721942192 0.881593345644323 0  3.618253274934649 0.1316869186284249 0  2.6953125 0.1171877537844335 0  2.9296875 0.1171877537844335 0  2.21873344389451 0.125 0  4.3359375 0.1171877625080073 0  0.6659898565672709 0.3986593551313873 0  7.363359022954956 0.3481046411219251 0  7.363359022954956 0.6518953588780749 0  5.487719392831826 0.3828237631077121 0  2.695054578344725 0.5809158475691247 0  2.944553877887707 0.5964065668438148 0  0.3515625 0.1201898858097106 0  5.5078125 1 0  4.5703125 1 0  5.031746201297604 0.882568359375 0  3.1640625 0 0  6.2109375 1 0  6.186845385763124 0.6336356480571081 0  4.1015625 1 0  6.810399074069772 0.6495574751396682 0  0.4740615253480797 0.2509287743856873 0  7.052064303830151 0.3684417917792242 0  6.195177069665382 0.1216488332168849 0  5.72300154718324 0.4112068202852788 0  3.879157465495092 0.6111892850691246 0  3.645760045247695 0.5809158475691247 0  6.868257400485771 0.3427840810237202 0  6.612030892260864 0.1521752713064389 0  6.615666885941117 0.3151079644097221 0  4.04296875 0.8633718902669071 0  1.183031453639096 0.8486801864185936 0  6.9140625 0 0  6.859079526500421 0.1398292786950638 0  6.808232443325651 0.7957411753922057 0  6.9140625 1 0  4.544955211100143 0.3675874343205077 0  1.0546875 1 0  6.122060236165557 0.3316791557072867 0  0.5859375 0 0  5.9765625 0 0  5.44921875 0.870984788733638 0  4.51171875 0.870984788733638 0  0.7608354256382215 0.2931261274224557 0  6.386875332239937 0.3156583003094978 0  6.985654756850997 0.6147408423643147 0  6.223797257919172 0.8535621912121121 0  5.936822413218736 0.1338376546337823 0  6.23933008800134 0.4095573603773768 0  0.5414022462152697 0.1305482677949959 0  6.331360438104348 0.1370086318183389 0  0.956404929269873 0.1374266563647954 0  1.2890625 1 0  0.691305981127761 0.6764829884281737 0  3.531251607241209 0.8678916320952239 0  2.59787442813022 
[...]
<PointData  Scalars="f_71633"> 
<DataArray  type="Float64"  Name="f_71633"  format="ascii">7.3904680898843156e-01  6.3168057496871377e-01  0.0000000000000000e+00  0.0000000000000000e+00  -9.0793726971800803e-01  -9.7094274753939447e-01  -1.0535391364565818e+00  -9.9980999255569114e-01  -9.0655661717170166e-01  -8.3701955150099450e-01  -7.8368534866112560e-01  -8.0915575926618943e-01  -8.5946442409958279e-01  -9.5474868821092973e-01  -1.1293070510313374e+00  -1.3682149508234771e+00  -1.5499244199752060e+00  -1.5912982654991084e+00  -1.3665664729446139e+00  -9.6967723461317079e-01  -3.9028481660987002e-01  2.4427781021826497e-01  8.3642851372969196e-01  1.3572946158390597e+00  1.6877613692413782e+00  1.7983729324168352e+00  1.6771832541061626e+00  1.3630584361326252e+00  8.9647892062916334e-01  3.9187067291440542e-01  -1.3185485380043199e-01  -6.0397181294535540e-01  -9.5370533856532891e-01  -1.1760191208048891e+00  -1.2651685155854502e+00  -1.2142429135579829e+00  -1.1174672452543333e+00  -1.0321485628843980e+00  -9.8410962397406021e-01  -9.6509800373934784e-01  -9.5939638785176751e-01  -9.5909918188647503e-01  -9.6435422045458463e-01  -9.3610742172070471e-01  1.3052350985973837e-01  7.0679911461521555e-02  -2.7623980629801659e-01  2.3697883689798130e-01  9.2708948203101826e-02  -6.2571022059540815e-03  -2.0510988886907180e-01  -4.5058828273409235e-01  3.2738978767465343e-01  4.0413661739780243e-01  -3.6393254110140960e-01  9.4711849485609595e-02  -1.6258737220827035e-01  1.5718483028432584e-01  -1.6118582538435289e-01  -1.8539617871054251e-01  -2.9490467239535667e-01  -1.4359259156473752e+00  -7.6131145019849367e-01  -3.0861406798691410e-01  0.0000000000000000e+00  -6.3680183843955329e-01  -1.6762899796384739e-01  7.1858751851452629e-01  6.2239511161978156e-01  -1.1045664543572320e+00  1.1501701611011168e-01  3.1147437549319751e-01  -4.3695187630785115e-01  1.5592230929019188e-01  -4.4501879598741428e-01  3.8964661381414323e-01  -4.7108729659069221e-01  2.3096052578709017e-02  2.3484555721210967e-01  -9.7708083624131459e-01  -2.5031516070863230e-01  -4.7990898058096187e-01  -2.1737239836745098e-01  2.8817584072337149e-01  6.8441704416679316e-01  -3.0876525711274411e-01  -2.8683118998999165e-02  8.2511972688853141e-01  -2.6838638007122545e-01  1.7805092245586823e-01  -3.1144664624437157e-01  1.3032534004869981e-01  -1.8213294499389741e+00  4.7683065390381074e-01  -7.8771518411903196e-01  2.5720840221948960e-01  2.0307762172002039e-01  -3.0952119831536584e-01  2.2500265975474450e-02  -2.5001662023384080e-01  6.4727371271327816e-01  -3.4706901463658693e-02  -3.9192430339204681e-01  -1.0074758352572279e+00  1.5151553997360184e-01  -1.9608722036701923e-01  2.9330028986523715e-01  -9.3434808597681218e-01  -5.3220175650037616e-01  -5.0909894007839802e-02  2.6464975806863515e-02  -3.9010631356406911e-01  -4.0798229928122820e-01  -7.4085435554745915e-01  6.8834581422869287e-02  6.7960415632625981e-01  -2.0056112678365759e-01  6.3532401380767467e-01  7.4201776049947388e-01  -5.7357678076881558e-01  7.2820094355775711e-01  -6.9932136567319325e-01  7.6825663291059398e-01  3.2822850340670584e-01  -4.1830743073398702e-01  -4.3419896788463402e-01  -6.7451409251638217e-01  0.0000000000000000e+00  -5.7059292809962525e-01  0.0000000000000000e+00  -2.1876909899158006e-01  -5.7530741435365340e-01  -7.8219078296428846e-01  -1.3681761649988899e+00  1.5893483676833434e-01  1.8182492181075208e-01  -2.8528373696803039e-01  -8.3208706255889497e-01  -6.1630714613247817e-01  -9.1282747598235250e-02  -4.7786322535756653e-01  -1.0368310295331131e+00  -1.5802586997731378e+00  -1.0968340116396893e+00  -6.0699012102525374e-01  4.6077140259280676e-02  -3.4977922320988945e-02  1.8766404260361327e-01  -2.4919220044797538e-01  5.1230744346251722e-01  -6.6882321027534353e-01  -1.7696036580707536e-01  1.5578622357427022e-01  1.5138006437502305e-01  -2.2486947473314922e-01  -3.4779282705307629e-01  -1.6872804352303525e-02  2.1854024504087372e-01  -3.4068453181935111e-02  6.4290343171486464e-02  -7.7493373332241822e-02  -8.1804260564211154e-02  6.9089430016672435e-02  2.1261420393764288e-01  2.9823211239150615e-01  -9.0981867944501874e-02  3.6625287076965940e-01  -4.6051930432544336e-01  3.3271346598638224e-01  -1.8325396640475203e-01  1.5653685466139153e-01  5.4859906537388592e-01  -4.6285980247926961e-01  2.0252010287549974e-01  2.3970837448156671e-01  -2.6070767381269236e-03  6.3324981393774893e-01  -5.4215307026293347e-01  4.4074627948810507e-03  2.0483159156964847e-01  -2.5975990833010446e-02  3.0072250119909943e-01  -1.7467830575266763e-01  4.2498016561503132e-01  -1.2693871809770707e-01  7.3144734282156498e-01  8.4856378418607326e-01  7.5030864882401249e-01  -2.1849920283505156e-01  -6.5104750670459219e-02  -5.1715588929772649e-01  -6.9954355438685190e-01  -3.1099939669859156e-01  2.9006244808861487e-01  6.8809595102138310e-01  -3.0370824952426101e-01  -1.1384165099084656e-01  -2.6360433129593902e-01  1.1192441965789421e+00  2.9718844439529807e-01  3.2886293269568062e-01  -2.3918162443991888e+00  -2.3595901401992847e-01  -4.2551961236584229e-01  -3.6145362663082875e-01  7.4072417070720675e-01  -3.8558619324427022e-02  1.6226785019117845e-01  1.5266057331873792e-01  -6.0863905874570079e-01  -3.6861884843212966e-01  -9.9580952194506378e-01  -5.2709911964418232e-01  -2.5054301011991027e-02  4.9101889331081383e-01  2.1752518536781149e-01  -4.8387903708013258e-01  -2.0749564200920920e+00  3.4392636039696567e-01  4.1788043457459173e-01  -2.7191967316971066e-01  -2.2596772208149224e-01  2.9356735440557774e-01  3.7900456644243428e-02  6.6334124279334508e-02  -5.3120927762816494e-01  -4.8045331770123106e-01  6.3271752835177264e-01  6.3681854638556934e-01  2.4519235341713558e-01  -2.6410362142561955e-01  1.7908486096103832e-01  3.2114566985851156e-01  -3.6140322866735652e-01  -2.5901307232947524e-01  -1.8053318500606450e+00  -4.3730955456589665e-01  -1.0154318071438413e+00  -3.1949636273459103e-01  -4.3345919598702309e-01  -1.0793509302160249e+00  -4.2329670053686713e-01  -1.8855033949785055e-01  1.5178394790285074e-01  7.8438337831491678e-02  -4.7824641968462345e-01  -5.8700212618748848e-01  1.9998763096088289e-02  -1.1965236802290133e+00  -3.4358470837314681e-01  7.5075157316623964e-01  -5.4667037006158818e-02  -2.4735676236622959e-02  -2.7008806742938224e-01  -1.3948170228779347e-01  -9.9790761046393672e-01  -4.8592023744059237e-01  -1.0585932543090582e+00  -1.6863173595420997e+00  -1.1089859050510382e+00  2.5324453461247953e-01  5.9287760910395289e-02  -2.8921802424265747e-01  -5.0663873832570439e-01  9.3419743491482229e-02  -3.5256448865303713e-01  2.7969193307296858e-01  -3.8220354981358190e-01  -4.7493892483854599e-01  -2.7669646730704645e-01  -4.5439450665463545e-02  -3.1800669080942850e-01  1.0551356077225120e-01  1.6211654289771940e-01  1.3149938658598739e-01  6.8825998964321511e-02  -7.9892492561805195e-01  4.2173144203756302e-01  2.4669174789718989e-01  9.6755176953009503e-01  -3.4908933225717947e-01  2.4539731140617571e-01  -3.4030720052302549e-01  -4.5580445627475047e-01  5.1308878084412424e-02  6.3288551709334351e-01  -3.4090589445215924e-01  -3.8304589726594962e-01  3.0402336351072135e-01  1.4052507498627234e-01  2.8603249786561780e-01  2.6537070080042632e-02  2.8169196697426918e-01  -1.0865393090474054e+00  6.7911914129209960e-01  -1.1060030677632042e-01  -3.8817458988073933e-01  -4.2582567099443214e-01  -3.6806012174247796e-02  -1.4617398395350725e+00  -2.0710365188197824e-01  8.2192313890593519e-02  -8.9616440303120187e-02  3.1206633357085101e-01  -6.8956888895256552e-01  2.3445655702302093e-01  1.5864490500737929e-01  -8.9283624534411610e-01  -3.5824640171414623e-01  -5.6879537193580787e-01  -3.4821464705959970e-01  -6.3071023922519232e-01  5.9918540373381468e-01  3.3944202007871328e-02  -1.9994296017872243e-01  -5.4735580814793816e-01  4.7549158516427042e-01  -3.5562607019734160e-01  -6.9044841432651660e-01  2.7570441516044536e-01  8.6232651359169951e-02  -5.3179845626727185e-01  6.1881764636436765e-01  -2.7785006424729780e-01  -2.2767375717179330e-03  -4.0530343445832262e-01  1.0445847021773871e+00  -6.5017278953886959e-01  -8.5720304338386108e-02  -9.3867163082308136e-02  -3.2935192984008560e-01  -3.3775156049291481e-02  7.8675918193392969e-01  6.9751027763773854e-01  2.8065403127118299e-01  3.3916248962997814e-01  -6.2058933211972434e-01  1.2787876603174472e-02  -3.0427922257189594e-01  -1.9972938113737385e-01  -2.6756155040956964e-01  6.4133257526695464e-01  -4.5389251627571731e-01  7.5186314296699319e-01  -6.4654609619700798e-01  7.3238933819254193e-01  -6.2402503534132192e-01  -6.9673477767559977e-01  1.1612116026660389e-01  -8.8864298789148366e-01  -4.5665140322810760e-01  -8.9364958403588868e-01  -4.3831545613023060e-01  -1.0691278459560993e+00  -1.3616242893014117e+00  0.0000000000000000e+00  0.0000000000000000e+00  7.3986091288276568e-01  6.8245271826371545e-01  7.3835897735451295e-01  0.0000000000000000e+00  0.0000000000000000e+00  2.2573309084120222e-01  -2.5176755076798041e-01  7.2176899724316484e-02  -1.6270960221294561e+00  -1.3663793002260900e+00  2.4179268198304068e-02  6.3167781130986034e-01  -3.8535822611710557e-01  5.1365109512828755e-01  1.9949620330839229e-01  -9.8104351991706706e-01  -3.9553606432240124e-02  -2.4964675878989864e-01  -5.7446834760166487e-01  -5.5994891036184447e-01  2.3761653133302230e-01  -2.1668412934489778e+00  -5.9029638213032132e-01  -1.4521303269141435e+00  -5.7217820200089908e-01  -3.8715286024944728e-02  7.3650577039073806e-01  6.1972772155756173e-01  1.0693279888560170e-01  3.7526270765906970e-02  -5.9972228973952801e-01  -5.1511659405736665e-01  -3.0934993951457296e-01  -8.7789106075775480e-01  -2.3148761306629911e-01  -1.6447301447768543e+00  -9.6706908255463975e-01  -5.2527262474243441e-01  3.3805040791156615e-01  3.0592922451954291e-01  -8.2739350955900279e-02  5.8500280037317803e-02  -8.4770941750397222e-01  -2.7488762452307836e-01  -1.1837496897626467e+00  -2.2493062358656886e+00  -3.4778743112722360e-01  -1.2531014177248931e+00  -3.9449446560397416e-01  -2.3555552144835842e-01  9.1594218753565312e-02  -3.8282391311174263e-01  -3.4506843141346105e-01  -4.7764403033094371e-01  -1.0840812623875340e+00  -1.2915766597495595e+00  -6.3552754718661575e-01  -2.5696306251774292e-01  -7.3263172694893708e-01  -1.1189992613499238e+00  -3.7113437352221584e-01  -1.5211835483283068e-01  -3.6984170738431887e-01  -3.3312096391513180e-01  1.6454050777188642e-01  -2.2378941368258770e-01  -8.5118861049895256e-01  1.7750295413407671e-01  -6.2472550903626667e-01  2.5399306205038541e-01  3.9031894346200047e-01  5.3042162073804036e-02  8.7684601758607705e-02  3.4567270441754233e-01  1.9319195809554027e-01  -6.7426628774717745e-01  -2.0127018022528673e-01  1.5245622962746974e-01  -2.7861607453322165e-02  -2.9805666037572071e-01  6.3006535915081618e-01  3.0688952653342610e-01  4.4622613367444242e-01  -5.8118636902511878e-01  -5.7179246343163792e-01  3.8729333743414265e-02  1.0884371167783036e-01  -3.3441265532680314e-01  -2.9791407835609712e-02  3.0755792578742702e-01  -2.2934344576704288e-01  1.0676812532699721e-01  -1.3899063944645546e-01  1.0424158290476164e-01  -5.1337480927585011e-01  -2.7725752233254386e-01  1.3984765247794714e-01  -5.8608447403277288e-02  -3.1469025684583707e-01  -2.6031621253659021e-01  2.2909889862306362e-01  -1.0970022590729081e-01  1.6343531300418657e-01  3.4633319539858104e-01  -4.1027052313601264e-01  -3.9615256755807920e-01  7.2605629037564651e-02  9.1465116593310594e-02  2.4134066794974290e-01  -1.6320706714786215e-01  3.9108488640223543e-01  2.4236447803681910e-01  -4.0699264716244310e-01  -6.1347403501410949e-02  -3.5242899175453246e-01  -2.9677957243728775e-02  3.6239665012688810e-01  -3.7089560018452830e-02  7.1059593413043953e-01  2.3471197894318171e-01  1.2372777958892382e-01  -3.5448027228844492e-01  -3.8226653867191665e-02  2.5216273125619965e-01  2.8202324786608574e-01  3.2486188283669998e-01  -2.2583094393470213e-01  1.6802418033925226e-01  1.0638552893680149e-01  -2.6000924954477800e-01  7.9546910842678967e-02  -9.5211258838934377e-03  -4.6038089614626421e-01  -3.8889371028335917e-01  -4.7730033597261817e-01  -1.1733550579522345e-01  -8.1032505280781397e-01  1.6364459704875131e-01  -5.5794877230607332e-01  -3.4125945466277757e-01  -5.1798498276488469e-01  -6.3904271922371969e-01  -9.9913634219299607e-01  -2.0425950282318506e-01  3.0438208458862975e-01  1.3036665184145318e-01  -7.9715145884514685e-02  2.5628683323853518e-01  2.5229018507005058e-01  1.2556125279958807e-01  -1.0744815613674597e-02  1.7281600716056736e-01  2.4165664022453678e-01  -4.0677073810791858e-01  -4.9087762080821568e-01  -5.2394253116112177e-01  -2.3442481064096632e-01  -9.9593878449919793e-02  -6.3530742737444612e-01  1.6446499682161783e-01  -1.4469964132426652e-01  1.7305366578891235e-01  3.7951868115247306e-01  -3.7395811401839701e-02  -1.3605845129832932e+00  -6.4090903381722825e-02  3.6708777597563214e-01  -1.0248982445361561e+00  -3.1215131306874349e-02  -3.2239772146587420e-01  1.3604733282847633e-02  -3.1741294770447609e-01  -1.2088014572411596e+00  7.2690390402331506e-01  3.1265608898980829e-01  1.1953029017322377e-01  -4.5745812989646922e-01  -9.4878342130053916e-02  4.4157721923014294e-02  -1.4087039994664247e-01  7.3155340564931370e-01  7.4348996099185571e-01  7.7368895451652187e-01  -8.4870033470606399e-01  2.1560779368843414e-01  -6.3679590510556183e-01  8.2507409415563471e-01  7.4646415873195093e-01  7.6595307519283495e-01  -2.5512140625782215e-01  -1.1983228419137254e-01  4.8090715605938406e-01  6.5477853421195387e-02  -3.3747588897588254e-01  3.5289356332337651e-01  2.7630656144211785e-01  9.5168947670619053e-01  9.1429301512827721e-01  4.1872965575715482e-01  -4.8035014258253428e-01  -3.1450308996462595e-01  -4.3947882181605707e-01  -2.0122221468683579e+00  -2.9963842281262892e-01  -2.0129252061309343e-02  -1.8631825227169543e-01  -3.0076814183862677e-01  -1.5852796568337948e-02  -5.9529273315450593e-01  -1.4667838993787369e-01  -1.5158579909852246e+00  -3.8131246996390938e-01  1.3679512450456197e+00  -5.5444068067101759e-01  -2.0608138283929822e-01  -8.0119997903948678e-02  6.5730529564575713e-01  6.5750009618254313e-01  7.0389852095853411e-01  1.1312147095147315e-01  -2.8705687804165092e-01  8.0552406764153817e-02  -3.9787385392307045e-01  6.4206229236024936e-01  -4.2672589051275245e-01  -5.6647273531285902e-01  -7.0209729492821796e-02  -2.0258902560422926e-01  -5.3326436009956335e-01  -4.7215333711683138e-01  9.5161807727586156e-01  1.6720771548905414e-01  7.7223333160432717e-01  -1.6858645484834875e+00  -1.2688241966654528e+00  -8.7635266031513626e-01  1.5419661306217644e-01  -4.7002436110442825e-01  2.3297592719326715e-01  1.2289183844494909e-01  7.0296784433348780e-01  7.0902888751047688e-01  2.3159828151256617e-01  -5.8176805068080528e-01  -2.4064769518879345e-01  -2.5136522736231381e-01  -1.1249318412155594e-01  -3.3687407117495727e-01  -4.7355448140576489e-01  -2.8684212005675747e-01  -4.8242781038828447e-01  6.3105236315381585e-01  2.6594417058168451e-01  3.1980473227139938e-01  1.0096971243897734e-01  4.6145892110395000e-02  -5.3905227145005441e-01  -3.6554809057433851e-01  6.2576050411737172e-01  -1.7799868075126477e-01  9.9817234502213892e-01  -3.8676199719286664e-01  -7.3869308515851509e-02  -2.2181723681704010e-01  -1.8601110620366946e-02  -6.4109159392601611e-01  4.5877350405925027e-01  -2.4422427870227392e-01  2.0598289947878301e-01  1.6957758631768355e-01  2.7090370027232979e-01  2.0341443382375446e-01  6.5370620574697980e-01  7.3407998724417634e-01  7.4135967170135508e-01  -2.9607706132657230e-01  2.2493800928496682e-01  -3.1792856555153592e-01  1.7667197617542565e-01  6.3290533359944190e-01  9.8761976366959117e-02  7.3878536347379731e-01  -1.5475738937911376e-01  -5.6244873973195897e-01  8.5069407543051940e-03  1.1937952485795761e-01  6.3931902304930233e-01  1.3155037691650337e-01  -2.9741971437928172e-01  -2.9942071961398281e-01  2.1319098599058603e-01  -6.5419122793186435e-01  -7.5890562317508098e-02  1.6313333795237122e-02  6.4572351595417765e-01  1.6906302196335482e-01  -8.8200138661829064e-01  4.5208267714120670e-01  3.4866230773233108e-02  7.2158928594040439e-01  -8.5551553839268615e-02  -2.6215914924109041e-01  9.3031059230707841e-02  -8.2470547722177678e-01  -2.1531823807129307e+00  5.1165176557108605e-01  -5.1285446826292858e-01  -4.0842158822926650e-01  -7.4999717604173943e-01  -5.8902697726079012e-01  3.5936082508854567e-01  -4.9726821120064030e-01  4.3649143477224750e-01  7.8206746506631719e-01  2.1868459582197651e-02  1.0232668112715612e-01  -8.7658344263973831e-01  4.5251142424834373e-01  -2.4380515177710577e-01  -5.8392907388206261e-01  2.3852194279937608e-01  -5.2166082184420171e-01  5.7935060725804677e-02  -1.0923518012292153e+00  -1.0320306288983563e+00  3.0873525557473441e-01  2.0629972560479004e-01  -3.2029279506645919e-01  -4.5022949151430214e-01  -5.0314583081283593e-01  -1.3996759476543616e-01  1.4772962529065933e-01  8.8201396232809745e-02  -3.6581429610598931e-01  -6.7743003395050927e-01  -1.2170625670296717e-01  2.5828472746550379e-01  -5.4449624819278297e-01  -1.9595529848983708e+00  -1.6038412219496101e+00  3.4771100375759184e-01  4.0929265877641102e-01  -1.5827398179580057e-01  7.8401107333296738e-01  -1.9992893653511477e+00  -4.1496820563251757e-01  -3.9698188275151486e-01  -4.4092786161320890e-01  -8.9735769450917025e-01  -2.4912712213640004e-01  -1.5976907398959764e-01  -2.7816026927322540e-01  -6.8520052200951909e-01  -4.3130138458308998e-01  -2.5159631559191492e-01  1.2158270384827735e-01  2.4246312603921058e-01  -2.6632592159790835e-01  -8.7348660357856567e-01  -5.3820701962939343e-01  -8.1242583103692401e-01  -2.3427002720720461e-01  -6.5155920619022412e-01  -1.9410103636870407e-01  -5.2798741809862393e-01  -4.3016165082442925e-01  -3.1735076321894662e-01  -1.1154832169837879e-01  -3.2038083156219316e-01  -8.6389394301235500e-01  -2.8482753888700091e-01  -5.0398938979031083e-01  -5.0158359088788484e-01  -1.9239953177054461e+00  -1.1813714559905359e+00  -1.3013652413902852e+00  -3.7616965212458453e-01  -1.5906218566731258e+00  -1.3649287129148857e+00  -3.3465750572888175e-01  -5.1919915193105869e-02  6.6421580607114367e-02  2.9253801075722585e-01  8.7391929778720914e-02  -4.5862626654758032e-01  -6.2025483161739048e-01  -1.6591540942068639e-01  -6.3942081737592549e-01  -5.6023598702086697e-01  -4.3391332760125684e-01  -4.3727074387387516e-01  6.5766941295701575e-01  -1.0332667286362041e+00  1.3397645674590131e+00  -8.2147171216618986e-01  -9.5204970154800372e-01  -1.0845257101466636e-01  -1.0476700719404715e+00  -4.6731765608385128e-01  -7.5190794061941957e-01  1.1779956633662183e+00  -7.9197450001020508e-01  1.1993253420754943e+00  -8.2514304558538210e-01  -7.5578472594671842e-01  -1.2159113974670837e+00  -8.0758661740213977e-01  1.6067320472267208e+00  -9.9396317239602383e-01  1.1894612524778690e-01  -9.4698703901559977e-01  -4.3905353005969865e-02  -9.9071878537578018e-01  -9.5227001113153542e-01  -5.2002405257298023e-01  8.3803998807288316e-01  -8.9533818511304764e-01  -9.7327081631098933e-01  1.5198431272868587e+00  7.9473162588647328e-01  -9.2226535390086850e-01  -9.1465047577093095e-01  -9.2025256358937968e-01  -1.0153538645644768e+00  -9.4781523555130232e-01  -1.0351580347457443e+00  -1.0612110440305396e+00  -9.8894228505624870e-01  -9.4976086273334359e-01  -1.0291337158072342e+00  -9.0140403332851615e-01  -8.7162932789711101e-01  -8.7541315429966571e-01  -8.0333844383495179e-01  -8.5364943202179688e-01  -7.9061595419420305e-01  -7.8319890239111045e-01  -8.2878935039488544e-01  -8.3127004465160648e-01  -7.9819265953531782e-01  -8.3584328894325510e-01  -8.9929318304072148e-01  -8.6125646571956538e-01  -1.0329862137261814e+00  -8.9750750660378287e-01  -1.0599545533880885e+00  -1.2440437599019112e+00  -1.1345970099757963e+00  -1.4482589782862312e+00  -1.2086131545732046e+00  -1.5410706202860898e+00  -1.2155732246518411