<?xml version="1.0"?>
<VTKFile type="UnstructuredGrid"  version="0.1"  >
<UnstructuredGrid>
<Piece  NumberOfPoints="4269" NumberOfCells="8234">
<Points>
<DataArray  type="Float64"  NumberOfComponents="3"  format="ascii">0 1 0  0 0 0  7.5 0 0  7.5 1 0  1.197537668119028 0.5812868930080463 0  1.2 0.55 0  1.197537668119028 0.5187131069919538 0  1.190211303259031 0.4881966011250105 0  1.178201304837674 0.4592019000520907 0  1.161803398874989 0.4324429495415054 0  1.141421356237309 0.4085786437626905 0  1.117557050458495 0.3881966011250105 0  1.090798099947909 0.3717986951623264 0  1.06180339887499 0.3597886967409693 0  1.031286893008046 0.3524623318809725 0  1 0.35 0  0.9687131069919538 0.3524623318809725 0  0.9381966011250105 0.3597886967409694 0  0.9092019000520906 0.3717986951623264 0  0.8824429495415054 0.3881966011250105 0  0.8585786437626904 0.4085786437626905 0  0.8381966011250105 0.4324429495415054 0  0.8217986951623264 0.4592019000520907 0  0.8097886967409692 0.4881966011250107 0  0.8024623318809725 0.5187131069919539 0  0.8 0.55 0  0.8024623318809725 0.5812868930080463 0  0.8097886967409693 0.6118033988749896 0  0.8217986951623264 0.6407980999479095 0  0.8381966011250105 0.6675570504584947 0  0.8585786437626906 0.6914213562373096 0  0.8824429495415054 0.7118033988749896 0  0.9092019000520907 0.7282013048376736 0  0.9381966011250106 0.7402113032590307 0  0.9687131069919539 0.7475376681190276 0  1 0.75 0  1.031286893008046 0.7475376681190276 0  1.06180339887499 0.7402113032590307 0  1.090798099947909 0.7282013048376736 0  1.117557050458495 0.7118033988749896 0  1.141421356237309 0.6914213562373095 0  1.161803398874989 0.6675570504584947 0  1.178201304837674 0.6407980999479094 0  1.190211303259031 0.6118033988749896 0  3.75 0 0  3.75 1 0  1.875 0 0  1.875 1 0  0.9375 0 0  0.9375 1 0  1.40625 1 0  5.625 1 0  5.625 0 0  2.8125 1 0  2.8125 0 0  4.6875 0 0  4.6875 1 0  6.5625 0 0  6.5625 1 0  5.15625 0.5 0  4.21875 0.5 0  2.34375 0.5 0  3.28125 0.5 0  6.09375 0.5 0  7.5 0.5 0  6.897916666666666 0.5 0  1.842708333333333 0.5 0  0 0.5 0  0.46875 0 0  5.625 0.5302734375 0  7.03125 0 0  6.09375 1 0  2.8125 0.4697265625 0  3.28125 0 0  2.34375 1 0  2.34375 0 0  3.75 0.4697265625 0  4.21875 0 0  4.21875 1 0  4.6875 0.5302734375 0  3.28125 1 0  5.15625 0 0  6.09375 0 0  5.15625 1 0  0.46875 1 0  1.40625 0 0  7.03125 1 0  0.3954638734376499 0.5975780249976004 0  6.495833333333334 0.4072265624999998 0  5.859375 0.25 0  4.905729166666666 0.26513671875 0  4.453125 0.25 0  3.531770833333333 0.73486328125 0  3.968229166666667 0.73486328125 0  2.594270833333333 0.73486328125 0  3.030729166666667 0.73486328125 0  6.328125 0.75 0  7.198958333333334 0.3125000000000002 0  7.198958333333334 0.6874999999999998 0  5.390625 0.25 0  0 0.25 0  2.109375 0.75 0  2.109375 0.25 0  1.51921323205749 0.3418883887525936 0  1.522346610178253 0.6811769608297746 0  5.375456746419271 0.75 0  4.921875 0.76513671875 0  4.437956746419271 0.75 0  3.984375 0.23486328125 0  3.500456746419271 0.25 0  2.578125 0.23486328125 0  3.046875 0.23486328125 0  5.874543253580729 0.75 0  6.642123189445656 0.6909095493086836 0  6.746354166666666 0.2391688368055553 0  0.3197109619185111 0.2850049285972083 0  6.328125 0 0  0.6313375889370429 0.2351325552547357 0  0 0.75 0  6.252283381534729 0.2693808819694041 0  0.234375 1 0  6.948437500000001 0.7543055555555555 0  0.5934018769555939 0.7694151657947577 0  1.858854166666667 0.75 0  1.858854166666667 0.25 0  1.640625 0 0  2.093229166666667 0.5 0  7.5 0.25 0  3.282227579752604 0.75 0  7.5 0.75 0  1.171875 0 0  1.303539853147731 0.2235426933121065 0  5.148177083333333 0.2575683593749998 0  2.351822916666667 0.742431640625 0  1.640625 1 0  4.202380413457425 0.7645435094236485 0  3.047822985053062 0.4701848030090332 0  2.577177014946938 0.4701848030090332 0  4.672792740482199 0.76513671875 0  4.922822985053062 0.5298151969909668 0  5.390593497949761 0.5156244924311331 0  5.610292740482199 0.76513671875 0  3.516602579752604 0.5 0  4.45496853898097 0.4865915990446593 0  5.85753146101903 0.4865915990446593 0  3.749511210123698 0.23486328125 0  3.983397420247396 0.4999999999999999 0  2.343497975411212 0.2346270081980111 0  4.219002024588788 0.2346270081980111 0  0.703125 0 0  2.8125 0.2343755075688669 0  3.046875 0 0  2.578125 0 0  3.515625 0 0  3.984375 0 0  4.453125 1 0  5.390625 1 0  2.109375 0 0  2.109375 1 0  5.625 0.2921402030705575 0  5.390625 0 0  7.265625 0 0  6.796875 0 0  6.328125 1 0  3.046875 1 0  2.578125 1 0  3.984375 1 0  3.515625 1 0  4.453125 0 0  4.921875 0 0  5.859375 0 0  0.703125 1 0  1.171875 1 0  7.265625 1 0  4.921875 1 0  5.859375 1 0  0.234375 0 0  6.796875 1 0  6.980310975276531 0.2285890127127066 0  5.149170481934885 0.772689292163473 0  3.274170481934884 0.2273107078365268 0  6.101334126790364 0.7722468376159667 0  4.678005340872584 0.3000799877067239 0  2.8125 0.6921051326382495 0  3.75 0.6921051326382495 0  0.3515624999999999 0.8134571721668546 0  0.4990405774417521 0.4070099317153735 0  0.1789273931360182 0.625 0  6.31239060814315 0.5298877111157968 0  6.456979773992304 0.1917956348713352 0  6.699870808919271 0.4406293402777773 0  1.337539480965883 0.7944303676599538 0  6.058675797563041 0.2019812164653516 0  0.8203125 0.1643029084422534 0  0.1480856513011711 0.375 0  1.090769294689562 0.1719186776982972 0  7.291088163206459 0.5 0  7.094502414936563 0.5197902199074071 0  0.6046212059042245 0.5730066483871106 0  1.707231580809486 0.6342709161352207 0  1.685961352504593 0.8193269193390785 0  1.374721602852827 0.4600373025865813 0  6.486415510043844 0.5916440776477192 0  1.5234375 0.1508863828685116 0  1.707925830421689 0.3657739208189008 0  0.1674513225045584 0.8278776664019765 0  7.138268756771176 0.1438183366439137 0  7.1484375 0.8616388888888887 0  7.328562530764119 0.819498462930605 0  4.101073710123698 0.3678637200736647 0  1.693878467219965 0.1911955120941053 0  1.577566745468488 0.5110082404081502 0  6.6796875 0.8653871806883484 0  6.498039504430512 0.825568433346395 0  0.7562556668576472 0.8333197949571929 0  4.101045914668806 0.6255195807449272 0  5.030745188395182 0.382829047309028 0  2.476364945868651 0.6095868094762166 0  2.729359843907322 0.8460525663191247 0  2.9296875 0.8740763101564099 0  3.163518307559356 0.6254622797994247 0  3.666859843907322 0.8460525663191247 0  3.8671875 0.8740763101564099 0  4.8046875 0.12592368984359 0  3.14936031382311 0.8606990583876851 0  2.4609375 0.8747622921397776 0  5.023140791101972 0.1392266772452574 0  0 0.125 0  0.1759922923594607 0.1727589856739889 0  4.5703125 0.125 0  7.327755777818006 0.1766156770456191 0  5.5078125 0.125 0  5.719712725029036 0.1460701015352787 0  4.327848962028002 0.3674169956512513 0  5.982681121544351 0.3692637923021713 0  3.398926289876302 0.6245417594909667 0  5.281756792511996 0.3827993367299961 0  2.226822645963271 0.6252438868405666 0  2.234390064317166 0.8676616584526566 0  5.2734375 0.125 0  1.96796875 0.382568359375 0  2.234651037971999 0.3674169956512511 0  1.984114583333333 0.132568359375 0  1.9921875 0.875 0  1.984114583333333 0.632568359375 0  5.748733794462357 0.8678269127183313 0  3.3984375 0.875456329184688 0  1.512925924995415 0.8582958012121853 0  1.359299372802969 0.6275861864990343 0  4.810521420483513 0.4041767793635395 0  0.2996213306116602 0.455339710363317 0  5.999933717403708 0.6388425470751088 0  5.250033449003657 0.6388713364551682 0  3.631676045992918 0.3525406652400928 0  4.3359375 0.8816499670325881 0  4.343577437052484 0.6116511299909198 0  3.375033449003656 0.3611286635448316 0  5.763152151652243 0.6249404690537395 0  4.549347848347757 0.6249404690537396 0  5.5004588702411 0.6403667365776566 0  5.976118394847484 0.8816230218343086 0  5.054722486865804 0.6338007028640954 0  3.164542163493752 0.3520519332736524 0  2.445407482032355 0.3672168403687257 0  4.8046875 0.882568359375 0  4.1015625 0.117431640625 0  2.4609375 0.117431640625 0  2.695556894938151 0.3520510350344335 0  2.929443105061849 0.3520510350344335 0  3.881979231817319 0.3670559016511187 0  3.8671875 0.117431640625 0  4.805389247695744 0.6470047893641744 0  3.399370721942191 0.1184066543556767 0  5.274370721942192 0.881593345644323 0  3.618253274934649 0.1316869186284249 0  2.6953125 0.1171877537844335 0  2.9296875 0.1171877537844335 0  2.21873344389451 0.125 0  4.3359375 0.1171877625080073 0  0.6659898565672709 0.3986593551313873 0  7.363359022954956 0.3481046411219251 0  7.363359022954956 0.6518953588780749 0  5.487719392831826 0.3828237631077121 0  2.695054578344725 0.5809158475691247 0  2.944553877887707 0.5964065668438148 0  0.3515625 0.1201898858097106 0  5.5078125 1 0  4.5703125 1 0  5.031746201297604 0.882568359375 0  3.1640625 0 0  6.2109375 1 0  6.186845385763124 0.6336356480571081 0  4.1015625 1 0  6.810399074069772 0.6495574751396682 0  0.4740615253480797 0.2509287743856873 0  7.052064303830151 0.3684417917792242 0  6.195177069665382 0.1216488332168849 0  5.72300154718324 0.4112068202852788 0  3.879157465495092 0.6111892850691246 0  3.645760045247695 0.5809158475691247 0  6.868257400485771 0.3427840810237202 0  6.612030892260864 0.1521752713064389 0  6.615666885941117 0.3151079644097221 0  4.04296875 0.8633718902669071 0  1.183031453639096 0.8486801864185936 0  6.9140625 0 0  6.859079526500421 0.1398292786950638 0  6.808232443325651 0.7957411753922057 0  6.9140625 1 0  4.544955211100143 0.3675874343205077 0  1.0546875 1 0  6.122060236165557 0.3316791557072867 0  0.5859375 0 0  5.9765625 0 0  5.44921875 0.870984788733638 0  4.51171875 0.870984788733638 0  0.7608354256382215 0.2931261274224557 0  6.386875332239937 0.3156583003094978 0  6.985654756850997 0.6147408423643147 0  6.223797257919172 0.8535621912121121 0  5.936822413218736 0.1338376546337823 0  6.23933008800134 0.4095573603773768 0  0.5414022462152697 0.1305482677949959 0  6.331360438104348 0.1370086318183389 0  0.956404929269873 0.1374266563647954 0  1.2890625 1 0  0.691305981127761 0.6764829884281737 0  3.531251607241209 0.8678916320952239 0  2.59787442813022 
[...]
<PointData  Scalars="f_71633"> 
<DataArray  type="Float64"  Name="f_71633"  format="ascii">7.9295042845179653e-01  6.0707084146494295e-01  0.0000000000000000e+00  0.0000000000000000e+00  -8.4931906288816827e-01  -1.1903030244362267e+00  -1.4114321727253731e+00  -1.3874375845557245e+00  -1.2884514550484105e+00  -1.2122161020475324e+00  -1.1915226895937074e+00  -1.2281126412196792e+00  -1.2941377602310060e+00  -1.4091029741645107e+00  -1.5982636830194661e+00  -1.8333040442879174e+00  -1.9815416916603035e+00  -1.9740264601770106e+00  -1.6860502391715391e+00  -1.2348917563575046e+00  -5.9617161772543237e-01  8.9824492656430624e-02  7.2752625157726469e-01  1.2941602080239987e+00  1.6657930250568782e+00  1.8167681398025373e+00  1.7372725684476353e+00  1.4668822350747519e+00  1.0491457045513337e+00  5.9290458913378552e-01  1.2155529292535744e-01  -2.9453897461320816e-01  -5.9007975253233569e-01  -7.5925681807973333e-01  -7.9352549757714252e-01  -7.1061713058268228e-01  -5.9787537743685437e-01  -5.1515728561294150e-01  -4.7807140752397659e-01  -4.7221460262388548e-01  -4.6554512326588066e-01  -5.0198047003503354e-01  -5.6669317297437483e-01  -6.4590550651015377e-01  3.1147724204198025e-02  1.8768455083271035e-01  3.1060694175916920e-02  5.0577564609331403e-02  -1.1493888236538830e-01  2.9511582283658216e-01  3.6600227571001689e-02  5.2241420554109665e-02  6.2992480075904998e-03  3.6225721283213524e-01  -3.6178958998599253e-01  2.3717158196169669e-01  -2.6035546063879417e-01  1.4068344392758092e-02  1.8848920835347067e-02  -1.9871988618095849e-02  -2.7675738417088674e-01  -1.2897621966476862e+00  -8.7816242269465949e-01  1.6214685825219255e-03  0.0000000000000000e+00  1.0290096652785114e-02  -7.9380794683168576e-01  7.3221269502879816e-01  5.6115436071501679e-01  -3.5414859465358745e-01  2.2069145854241761e-03  1.2388068777277947e-02  -4.1828382879893211e-01  3.8225911529291229e-01  -5.1303933456865947e-01  3.1280601015797904e-01  -4.3767880376765661e-01  -9.8820609216412572e-02  2.9137546740093240e-01  -1.1407601116207335e+00  -3.2522012286215468e-01  -3.9440246028064965e-02  7.3832069322609883e-02  2.4178009752509355e-01  7.7552149855658070e-01  -4.2628249369600218e-01  -1.0891054480991973e-02  8.5644615517363643e-01  1.2440431441694872e-02  1.3591540033483809e-01  -7.8824823553231074e-03  1.7291913284322519e-01  -1.6365750970783488e+00  2.3759556729017145e-01  -1.2545077257042528e-01  1.8740471343632292e-01  9.4276841619048684e-03  4.5111536368274323e-03  4.7371817446718424e-03  -9.6612876197370329e-02  6.3041679901915859e-01  -4.2681201787810930e-01  2.6515753582405049e-01  -7.9501200296777541e-01  4.2338325084592870e-02  1.2970160102479941e-01  -1.8417251874599794e-02  -2.7111385204013400e-01  -3.0947970428885518e-01  1.0679390456935937e-01  1.7175438735053965e-03  -6.8935861571363999e-01  -4.1351873156164613e-02  1.1166144311726812e-02  8.8903145780977917e-03  6.5991209578743382e-01  3.1697577963122121e-02  5.5041276206695300e-01  7.8714022514709114e-01  3.1534782233903998e-02  7.8631386742557186e-01  4.0287309685085220e-03  8.6858812532375274e-01  4.0298090918525376e-02  -2.5786254056479774e-01  -3.4899487018400005e-01  -6.0126835556403280e-01  0.0000000000000000e+00  -8.2433220780341043e-01  0.0000000000000000e+00  -4.2569725174133116e-01  -7.7236637864580182e-01  -9.2280086946984544e-03  -1.6377051140812178e+00  2.3766222359891970e-01  3.1356945125339530e-01  -3.0910254300964563e-01  -7.2896097615312039e-01  -7.1181495499064840e-01  -2.3783743288656212e-01  -1.9115788387070912e-01  1.8871534716785068e-02  -1.0920907081791145e+00  -6.3393690467705777e-01  -6.6521741253875374e-02  -6.9503814424822410e-02  -6.9510119197341264e-02  1.1638107944166141e-01  -5.9637074031346005e-01  3.8413563159268560e-01  -4.9714719014895514e-01  -5.6244888515911340e-01  5.5025601025321828e-02  2.6642573926329111e-01  -2.1274296102899509e-01  3.1033473187653864e-02  1.8973569781923880e-01  3.5409533698501311e-01  -3.2785542550510932e-01  -1.0413705393997585e-01  -4.6887284248593973e-02  7.7434855311242111e-03  2.1719318268773806e-03  1.7723889863034491e-02  2.5878393725025672e-01  1.1999672785782355e-01  3.6483093211376233e-01  -5.8414942628479594e-01  4.0945062524215992e-01  2.4755691998645229e-02  1.0593660748031530e-01  7.1722197757858497e-01  -1.3971413564661639e-01  -7.5006577034391628e-03  1.0813344634508469e-01  -3.1148796099092615e-02  6.0428155203992373e-01  3.4454801579019416e-02  3.9204870523805993e-03  1.8085183231946331e-01  -2.5068922548564999e-02  9.7573293050013787e-03  -2.5026622018497918e-01  2.8023855372794976e-01  -3.9173628111409392e-01  7.9309535786032292e-01  8.3092171442357643e-01  7.8140416836343385e-01  2.6957925609247819e-02  2.1497596918646805e-02  9.6912792669824142e-03  -2.8253400131823109e-01  7.6476742989514679e-02  1.2021719512413499e-01  6.8465956032445940e-01  -5.6371037882633301e-01  -3.2658341958900419e-04  8.1365577143136091e-03  1.1516657853005745e+00  1.0231048674944716e-04  2.6182978169450660e-01  -2.2266095318481236e+00  1.8631809174615318e-02  -4.1863822422026808e-01  -4.0931810274486879e-01  7.9163048865940189e-01  -7.9074229983077586e-04  -6.5206673116919925e-03  -3.1137389812136312e-03  -5.1836069275139918e-01  -2.4425628027873797e-01  -5.7768798347082362e-01  1.3422112403984597e-02  1.3604628897018333e-02  6.7653279560946666e-01  2.9523766961350714e-02  -7.8056532858716943e-02  -1.9607817537761316e+00  3.7806707245354915e-01  3.2729799316222585e-01  -4.4882423216882938e-01  -2.8616990860124014e-01  3.4717964379977717e-01  1.5442475681606260e-01  -1.3213028054462745e-02  -3.6534054678452399e-01  -4.3577601502615736e-03  6.0866378727852821e-01  6.1467747888726099e-01  3.8977072990241662e-01  -6.8354419196616802e-04  -5.2400329290223674e-02  6.8311803983360717e-02  -3.8106923743252336e-01  3.9212607577430003e-02  -1.6846114004295232e+00  -4.7453878107059290e-02  -1.3844431405172251e+00  -5.9290766950930518e-01  -4.2677537710482272e-02  -1.0012406653080235e+00  -1.7629678646276500e-01  2.2920468920078921e-01  -1.5898592785404461e-01  -4.4023602984331639e-01  -1.5869293372100308e-02  -8.0839571809847599e-01  1.0508964674413225e-01  -1.0601716359807887e+00  -4.5431802097195662e-01  7.5602233331644819e-01  -3.7492359195912629e-02  1.5222593132529216e-02  -3.1355725324857325e-01  2.7257498629107657e-01  -1.2976089265004831e-01  -3.2475545188442451e-01  -1.4019748846388416e-01  -1.0312965615343412e+00  -1.1705414252942259e-01  -1.1819132495331335e-02  4.6918169491967513e-03  -3.7884590819143732e-01  -3.3938246607810679e-01  -2.0507460355630197e-01  -3.2361897454236244e-01  1.8450187967165674e-01  -4.3576905253317810e-01  -4.5073402307621535e-01  -3.0454911409128582e-01  -1.6533619963440346e-01  -7.0588631953781833e-01  3.0762343996091956e-01  2.1195421763685979e-01  1.8203949925907684e-01  -6.1940177346096963e-02  -8.7058089448585374e-01  3.6291763935285543e-01  2.8911401394922381e-01  9.1588320918300081e-01  7.1250153768730642e-03  1.1407900697157870e-03  -3.2261243161535474e-01  -1.3461663963573045e-01  -1.5868707506350100e-02  5.9644071617859740e-01  1.1197576485584045e-01  -2.2782634663793316e-01  2.0857234611684186e-01  1.2420542173757159e-02  6.1060886617091744e-03  1.5962106630535447e-02  3.5403688710816056e-01  2.3854636161416277e-03  6.3597865732968994e-01  2.3755023811927430e-03  2.9736838411118811e-02  -5.1955294209096677e-02  -4.4043545815643938e-02  -1.0623223015982153e+00  5.1909109963982521e-03  1.2429728621256615e-02  1.2317527963312340e-02  3.2636393978316008e-01  -2.9861439685154495e-01  1.5223586114619976e-02  9.9911939226827208e-03  2.8394996329097377e-03  -1.9441112070540865e-02  -5.3545149679489568e-01  -5.2133297915412887e-04  4.1721491959760514e-02  5.1261901489730544e-01  4.8635720530359118e-02  1.3694740648329343e-01  -1.4980763871122293e-01  3.4604975633238760e-01  2.3283482641053389e-02  -5.1738869465562504e-04  8.3447200956022257e-03  6.7233293018113691e-02  1.5163485596800291e-02  5.4873663412920204e-01  2.7465293962137056e-02  -2.2456311316416130e-01  -1.0497990229672768e-01  1.1407935087209038e+00  -8.1555258005030584e-01  1.6344862295859514e-01  -3.3614516391165333e-01  -9.0997962115374670e-02  -3.1372046553737098e-01  8.4802806297965261e-01  7.8671430767155270e-01  2.5910783828928369e-01  2.3017021899035361e-01  9.3796681258679349e-03  2.9414896035764038e-01  -5.2187999279455910e-01  -3.4855160328532554e-03  -2.8478866642773991e-03  7.6532747126033940e-01  -8.7995441662815518e-02  7.9647777640506379e-01  -1.1932225543527055e+00  7.4538039840290338e-01  -3.3576958987141373e-02  -2.2692123162092695e-01  -3.7670608176630022e-01  -1.3025432473374399e-01  -9.7698809433700040e-01  -5.0436660318617259e-02  -8.4742344443256334e-01  -8.4690226549506853e-01  -1.4323875570626119e+00  0.0000000000000000e+00  0.0000000000000000e+00  7.9228381768229061e-01  6.7911207972291832e-01  7.6953638123391965e-01  0.0000000000000000e+00  0.0000000000000000e+00  1.5841220809213685e-02  -4.1107866660131870e-01  -8.0850243466431930e-03  -1.5631823133811480e+00  -1.3291863409380333e+00  -2.6054841755813993e-02  6.0653671525380459e-01  -4.9490611016058300e-01  3.9253811369565700e-01  7.7486090320319874e-03  -3.0910715490490289e-02  9.1213760891303300e-02  -6.5676531245253156e-01  -4.3662670390265640e-02  -6.4457362122591344e-02  -1.8453650030296539e-01  -2.0955627595742876e+00  -8.4856601989278246e-02  -1.1326665642484692e+00  -1.0782011505656759e+00  -3.5232330399337580e-01  7.9041152305816365e-01  7.5810078077881726e-01  1.8886554487738450e-02  -1.1008980691408150e-01  -1.6560060994811214e-02  -4.4980859135950185e-01  1.4762082144935377e-02  -3.8149752381133684e-01  3.9463785683424450e-02  -1.1363476648349728e+00  1.1712389984604445e-02  1.2477383284179946e-01  3.1327008725764699e-01  2.3585337862623015e-01  -2.6014642357924078e-01  -3.8935146647056662e-01  -1.0833305163781044e+00  -2.6643875777390941e-01  -1.0444224487346916e+00  -1.8173489591727663e+00  -2.9508086457217875e-01  -1.1599836918205684e+00  -4.5358395730434636e-01  -9.5759500266032929e-02  -1.9240283452209284e-01  -2.3979322244026305e-01  -3.0393061482206668e-01  -7.4282685517037528e-01  -1.1487371602098926e+00  -6.6895847337298822e-02  1.7828663671458415e-02  -3.7522292956871334e-01  8.3262447680808233e-02  -6.8736900991419558e-01  -4.3242921650900895e-01  -5.3482184819559381e-02  -1.6349578147208832e-01  1.3307570907576305e-02  5.8245707432773505e-02  -2.3903846244042876e-01  -4.5455153041103230e-01  3.6031157269604186e-01  -5.3008696777473707e-01  1.8585837512932360e-01  3.1714115754699868e-01  1.1649142345221994e-01  -4.2479132622885850e-02  4.6753198866350965e-01  2.3929218374153435e-01  -7.0683725041955181e-01  -2.2857618458586007e-01  6.6179597998542075e-02  -2.0135927406145609e-01  2.5413092788571030e-02  5.9079484948685634e-01  2.8060095579357636e-01  3.8508459497366043e-01  -4.6553290772714478e-01  -7.0844387049747126e-01  -7.7694439972839549e-02  3.5476537029669519e-01  -2.3547090509479870e-01  -1.1620541681416131e-01  1.9891558432898809e-01  -2.2993605908534814e-01  -1.3133187404947386e-01  2.6406522553502265e-01  2.1919757925163433e-01  -6.7428897873263571e-01  -7.0293083843095995e-03  -1.4221759947736681e-01  2.9735796692093674e-01  -4.3010201964598933e-02  -5.0057571484511287e-01  4.3701771975506162e-02  -5.5043154271649811e-02  -4.7309135977746108e-02  4.6662176876518852e-01  1.0671430820110149e-02  -2.4561225898784406e-01  3.4958551949462909e-02  1.9185228523982822e-01  3.9554554810826975e-01  -4.5411004615615203e-02  3.2192909021782373e-01  3.2294737471707724e-01  -9.6177125496293477e-03  -1.5300398382404169e-02  -3.9609114771159826e-01  -2.5436837805942886e-01  1.9620391931563605e-01  9.4203272711848775e-03  7.8129266582341217e-01  4.4669278121172102e-03  1.9878412385845756e-01  -1.3891626640232793e-01  1.4083523105519360e-01  -1.7256643766896625e-02  1.8596502610566226e-01  5.5808650676673910e-01  -4.0590781033609452e-01  1.1932712553165090e-02  1.2866155177598367e-02  6.7863399219995355e-03  3.8608182292673141e-03  2.0691801382328591e-03  -4.7032133469102105e-01  4.7667911010725012e-04  -3.7850889099453899e-01  -1.1644652652303684e-01  -8.1498702811352519e-01  1.0779855647145006e-01  -6.1518255456926496e-03  -7.8303543818557853e-01  -5.1687116017577339e-01  -9.8127687959057808e-01  -5.6623503164316935e-01  -4.3764214231058890e-01  2.5646541986644438e-03  -3.9922660459230853e-02  -3.3960910420341127e-02  8.2567787426661113e-02  2.1484719568730504e-01  2.3356725149802751e-01  1.1587717493965223e-01  1.4247867144980292e-01  2.3483542372460035e-02  2.5852592429795623e-02  -7.9708478965344076e-01  -6.2429245481194806e-01  5.6194288346638199e-03  6.9827485435870629e-03  -6.4113398019044388e-01  1.1725177562012908e-02  -3.0768819080189064e-01  1.9088371119348777e-01  2.3583145793129762e-01  -4.8536736521374989e-02  -1.2366702054222467e+00  2.9616972386875762e-01  1.4787348614801671e-01  -5.1421829754469339e-01  -2.7179745833682298e-02  -1.4196917790454183e-01  -5.9664620396027233e-02  2.2152724726771631e-02  -1.0100266686666770e+00  7.8523821077839706e-01  2.4833426705568526e-01  3.0358017876463039e-01  -3.3433701740496730e-01  1.3938346186019560e-02  1.5022883723724787e-02  2.5403234676753803e-02  7.5352831802060005e-01  7.8170978023969973e-01  8.0562774380237256e-01  -3.8735078613231375e-02  6.2540185560371581e-02  -4.3281670675511108e-01  8.3201399631846107e-01  7.3590228716371764e-01  7.1688055386496052e-01  -2.4282195739376348e-02  -6.8798825132679653e-02  3.5072551340789387e-01  1.2261455598950399e-01  -1.1531042659719062e-03  1.0835070479333471e-01  -8.1302717440681939e-03  9.6240447903761683e-01  9.5825412211503869e-01  3.5994788467293992e-01  -1.5917658328179762e-01  -1.9302748054557431e-01  -4.2686927869735036e-01  -1.8686042229487989e+00  2.9488532812932291e-04  2.3850986630300985e-04  -3.9279983015273690e-01  1.3048406390160429e-02  1.2896985212851830e-02  5.5050195154667846e-03  7.1690701877170041e-02  -7.2195962502840738e-01  -1.6074106502138441e-01  1.3631642426679396e+00  3.7255979773696407e-02  1.7971819651601436e-02  -1.3172406593173799e-03  6.4228231458398644e-01  6.4139196222396833e-01  6.9702604568363014e-01  7.4649571518153185e-03  1.0089838239650826e-02  5.7423013022989217e-02  -2.2325252535421333e-01  6.1658555120846048e-01  -3.3670631281538982e-01  -8.7661937072774987e-01  2.1106169414814316e-02  3.6532769541150816e-05  3.0489294385010021e-03  1.3531918453291341e-02  1.0216179182459995e+00  2.8157475010475880e-01  8.2031812090756262e-01  -1.8981034493865550e+00  -1.5556783275290331e+00  7.8387846087979544e-03  6.8364856491414563e-02  -4.2150476622379329e-01  2.7266513492843053e-01  2.3097263777198915e-01  7.7943590030580989e-01  7.1623505370388763e-01  4.2836270779063434e-02  -4.8342928640233268e-01  -3.0770693591710563e-01  -7.2560415415538261e-04  -1.8465696941905507e-03  -8.6423511173052050e-03  7.7010361185711404e-03  1.3288373707178653e-03  -1.2959017052578309e-01  6.0358582855196596e-01  -1.3239726831500960e-02  7.7889661864815246e-02  -3.1541116267784797e-01  5.4909436804701575e-03  -4.2617874439733633e-01  -2.7301419656628167e-01  5.7148868251409535e-01  -4.0600194681832280e-01  9.8240441455043392e-01  1.6508679741551530e-02  8.0134311570224191e-03  6.9083006337340202e-03  1.4491445598530314e-02  1.3118973012478780e-01  9.9624432384245246e-02  -1.1284940165664940e-02  -5.8179904609545726e-03  2.8522265445981663e-03  -6.8466449148191144e-03  2.4751716001896358e-03  8.1964589807645916e-01  7.8883797987017534e-01  7.9037537553387249e-01  5.2374980471264904e-02  -2.7337483429892870e-03  -4.0395509854859035e-01  -2.5452511868976551e-02  6.0889200993370407e-01  1.7647802096100076e-02  7.9205456117589479e-01  5.4362922254043832e-03  6.6351380233264298e-03  2.1639781950643609e-03  4.3448404470382571e-03  6.1834603224994789e-01  3.7562154257561631e-01  3.2561839985582153e-02  -4.6873933580658689e-01  1.1856656584330313e-02  1.0904680099557246e-02  1.1740817830550546e-03  -2.2498479624656282e-03  6.0565681102570568e-01  1.9211423576973927e-01  1.1133003295962517e-02  6.4975282484825236e-01  9.3563238939583706e-03  8.5604415469882167e-01  1.5264455809733415e-02  -6.2428589044050686e-01  3.8237629470751766e-01  -4.0075488528697878e-01  -2.0270459503094935e+00  3.9087684036797876e-01  2.5350767661202797e-02  -4.5652099515555367e-01  -6.1702338380945421e-01  -8.6044570961009481e-01  3.1923009895100940e-01  1.1003427028969063e-02  2.9019355118896334e-01  6.8430482267917569e-01  2.0708855834198589e-01  3.2274627482856882e-01  -9.9434257492956790e-01  3.7942035841736366e-01  -4.5872415467771527e-01  1.7885453099122199e-02  1.1298674559266791e-01  1.0653481794799637e-03  9.3331855910838823e-03  1.2103449983567745e-02  1.6587812219411376e-03  3.5077491762513291e-01  1.8998930191595276e-01  3.0117702931144321e-02  -2.6871278658945991e-01  -2.9826991257452241e-02  -1.9089212359316945e-02  -1.5881837892555914e-02  1.2179486886676912e-05  -2.3618489277459895e-02  -1.8406613169068643e-02  1.4769568475494942e-02  -5.2441773083436040e-02  -7.2766681550250056e-01  -1.8914201844932332e+00  -1.2092978793840150e+00  2.8030458196760333e-01  3.0538763801242219e-01  6.4012475692261830e-02  8.0313852687658682e-01  -1.8216813802672365e+00  -5.2958561987617253e-02  -7.4562329836697930e-02  -4.6912394511117428e-01  -5.5071623838602923e-01  1.0145574010525847e-01  -1.8949915730987524e-01  -1.5081455851613869e-02  -3.1471723994099386e-02  -2.2062239122833765e-02  2.9755791382934188e-01  -3.6715905240623270e-01  -1.8638422968832374e-01  -6.3239742209833205e-01  -6.5941060610665558e-01  -1.0766741002632658e+00  -8.4085763698961158e-01  1.2428675474555061e-01  -9.6477110991667447e-01  -5.4668075171917807e-01  -3.3902044535218673e-01  -6.7995808198223262e-01  4.3800332432573592e-02  9.3187898867880870e-02  2.1473665000956238e-02  -9.0765682678761117e-01  -6.6047823360463512e-02  -1.7522205550128542e-02  3.1013295123726897e-02  -1.6511533964652618e+00  -1.3392212553088270e+00  -1.3606416169829219e+00  -8.3567166100418377e-01  -1.6232691524711140e+00  -1.7548317497721695e+00  -3.9184539186139442e-02  -9.1726057361783381e-02  -2.3249253677976264e-01  4.1875567770123329e-01  -2.6665212759779189e-01  -3.4820889526678118e-02  -3.5100790967762377e-02  -3.5071898749811137e-01  -8.7268137254678657e-01  -7.3419351417214063e-01  -5.6844885366450126e-01  9.5509153137106603e-02  7.7042375152162224e-01  -1.2055932192282064e+00  1.3868692343250735e+00  -3.8167390080628333e-01  -4.9528889920253011e-01  -3.0989386385460671e-01  -7.8816863321813690e-01  -1.2233058446489985e-01  -1.1693358873869066e+00  1.2846257393919165e+00  -3.6654397902763181e-01  1.1374922155987190e+00  -1.2227330410202641e+00  -1.0562985156824525e+00  -1.5593803742309087e+00  -1.1588556854186907e+00  1.6438017813224495e+00  -5.5165169312523010e-01  3.5455483384385006e-01  -4.5901811654022073e-01  -2.2765870243388647e-01  -1.0573114085053159e+00  -1.3378479707886644e+00  -1.9030416114078169e-01  9.9080381691077357e-01  -4.7272616665817935e-01  -4.8669789441927380e-01  1.4879699286848616e+00  6.8891578327682124e-01  -1.0013117629928299e+00  -7.1973384680183250e-01  -9.1621878533753842e-01  -1.3154429231057339e+00  -1.0727334769667134e+00  -1.4106985816690396e+00  -1.4222473028123974e+00  -1.2238156486096026e+00  -1.3359904787141470e+00  -1.4017117900984877e+00  -1.2761696420821189e+00  -1.2459089281595079e+00  -1.2377067073214074e+00  -1.1937085002785444e+00  -1.2074966222424857e+00  -1.2056407002812364e+00  -1.1856305303791970e+00  -1.1891997885730823e+00  -1.2569266280978875e+00  -1.2044328390196706e+00  -1.2669969956608835e+00  -1.3439201759799253e+00  -1.2999679856059969e+00  -1.4960914681343196e+00  -1.3418854023946598e+00  -1.5177988228302286e+00  -1.7129448535285576e+00  -1.5847813146388861e+00  -1.8924477814618048e+00  -1.6482020293662205e+00  -1.9414090258917369e+00  -1.5760509341894158e+00  -1.7108941598727914e+00  -1.8007933584919977e+00  -1.5225178858609494e+0