<?xml version="1.0"?>
<VTKFile type="UnstructuredGrid"  version="0.1"  >
<UnstructuredGrid>
<Piece  NumberOfPoints="4269" NumberOfCells="8234">
<Points>
<DataArray  type="Float64"  NumberOfComponents="3"  format="ascii">0 1 0  0 0 0  7.5 0 0  7.5 1 0  1.197537668119028 0.5812868930080463 0  1.2 0.55 0  1.197537668119028 0.5187131069919538 0  1.190211303259031 0.4881966011250105 0  1.178201304837674 0.4592019000520907 0  1.161803398874989 0.4324429495415054 0  1.141421356237309 0.4085786437626905 0  1.117557050458495 0.3881966011250105 0  1.090798099947909 0.3717986951623264 0  1.06180339887499 0.3597886967409693 0  1.031286893008046 0.3524623318809725 0  1 0.35 0  0.9687131069919538 0.3524623318809725 0  0.9381966011250105 0.3597886967409694 0  0.9092019000520906 0.3717986951623264 0  0.8824429495415054 0.3881966011250105 0  0.8585786437626904 0.4085786437626905 0  0.8381966011250105 0.4324429495415054 0  0.8217986951623264 0.4592019000520907 0  0.8097886967409692 0.4881966011250107 0  0.8024623318809725 0.5187131069919539 0  0.8 0.55 0  0.8024623318809725 0.5812868930080463 0  0.8097886967409693 0.6118033988749896 0  0.8217986951623264 0.6407980999479095 0  0.8381966011250105 0.6675570504584947 0  0.8585786437626906 0.6914213562373096 0  0.8824429495415054 0.7118033988749896 0  0.9092019000520907 0.7282013048376736 0  0.9381966011250106 0.7402113032590307 0  0.9687131069919539 0.7475376681190276 0  1 0.75 0  1.031286893008046 0.7475376681190276 0  1.06180339887499 0.7402113032590307 0  1.090798099947909 0.7282013048376736 0  1.117557050458495 0.7118033988749896 0  1.141421356237309 0.6914213562373095 0  1.161803398874989 0.6675570504584947 0  1.178201304837674 0.6407980999479094 0  1.190211303259031 0.6118033988749896 0  3.75 0 0  3.75 1 0  1.875 0 0  1.875 1 0  0.9375 0 0  0.9375 1 0  1.40625 1 0  5.625 1 0  5.625 0 0  2.8125 1 0  2.8125 0 0  4.6875 0 0  4.6875 1 0  6.5625 0 0  6.5625 1 0  5.15625 0.5 0  4.21875 0.5 0  2.34375 0.5 0  3.28125 0.5 0  6.09375 0.5 0  7.5 0.5 0  6.897916666666666 0.5 0  1.842708333333333 0.5 0  0 0.5 0  0.46875 0 0  5.625 0.5302734375 0  7.03125 0 0  6.09375 1 0  2.8125 0.4697265625 0  3.28125 0 0  2.34375 1 0  2.34375 0 0  3.75 0.4697265625 0  4.21875 0 0  4.21875 1 0  4.6875 0.5302734375 0  3.28125 1 0  5.15625 0 0  6.09375 0 0  5.15625 1 0  0.46875 1 0  1.40625 0 0  7.03125 1 0  0.3954638734376499 0.5975780249976004 0  6.495833333333334 0.4072265624999998 0  5.859375 0.25 0  4.905729166666666 0.26513671875 0  4.453125 0.25 0  3.531770833333333 0.73486328125 0  3.968229166666667 0.73486328125 0  2.594270833333333 0.73486328125 0  3.030729166666667 0.73486328125 0  6.328125 0.75 0  7.198958333333334 0.3125000000000002 0  7.198958333333334 0.6874999999999998 0  5.390625 0.25 0  0 0.25 0  2.109375 0.75 0  2.109375 0.25 0  1.51921323205749 0.3418883887525936 0  1.522346610178253 0.6811769608297746 0  5.375456746419271 0.75 0  4.921875 0.76513671875 0  4.437956746419271 0.75 0  3.984375 0.23486328125 0  3.500456746419271 0.25 0  2.578125 0.23486328125 0  3.046875 0.23486328125 0  5.874543253580729 0.75 0  6.642123189445656 0.6909095493086836 0  6.746354166666666 0.2391688368055553 0  0.3197109619185111 0.2850049285972083 0  6.328125 0 0  0.6313375889370429 0.2351325552547357 0  0 0.75 0  6.252283381534729 0.2693808819694041 0  0.234375 1 0  6.948437500000001 0.7543055555555555 0  0.5934018769555939 0.7694151657947577 0  1.858854166666667 0.75 0  1.858854166666667 0.25 0  1.640625 0 0  2.093229166666667 0.5 0  7.5 0.25 0  3.282227579752604 0.75 0  7.5 0.75 0  1.171875 0 0  1.303539853147731 0.2235426933121065 0  5.148177083333333 0.2575683593749998 0  2.351822916666667 0.742431640625 0  1.640625 1 0  4.202380413457425 0.7645435094236485 0  3.047822985053062 0.4701848030090332 0  2.577177014946938 0.4701848030090332 0  4.672792740482199 0.76513671875 0  4.922822985053062 0.5298151969909668 0  5.390593497949761 0.5156244924311331 0  5.610292740482199 0.76513671875 0  3.516602579752604 0.5 0  4.45496853898097 0.4865915990446593 0  5.85753146101903 0.4865915990446593 0  3.749511210123698 0.23486328125 0  3.983397420247396 0.4999999999999999 0  2.343497975411212 0.2346270081980111 0  4.219002024588788 0.2346270081980111 0  0.703125 0 0  2.8125 0.2343755075688669 0  3.046875 0 0  2.578125 0 0  3.515625 0 0  3.984375 0 0  4.453125 1 0  5.390625 1 0  2.109375 0 0  2.109375 1 0  5.625 0.2921402030705575 0  5.390625 0 0  7.265625 0 0  6.796875 0 0  6.328125 1 0  3.046875 1 0  2.578125 1 0  3.984375 1 0  3.515625 1 0  4.453125 0 0  4.921875 0 0  5.859375 0 0  0.703125 1 0  1.171875 1 0  7.265625 1 0  4.921875 1 0  5.859375 1 0  0.234375 0 0  6.796875 1 0  6.980310975276531 0.2285890127127066 0  5.149170481934885 0.772689292163473 0  3.274170481934884 0.2273107078365268 0  6.101334126790364 0.7722468376159667 0  4.678005340872584 0.3000799877067239 0  2.8125 0.6921051326382495 0  3.75 0.6921051326382495 0  0.3515624999999999 0.8134571721668546 0  0.4990405774417521 0.4070099317153735 0  0.1789273931360182 0.625 0  6.31239060814315 0.5298877111157968 0  6.456979773992304 0.1917956348713352 0  6.699870808919271 0.4406293402777773 0  1.337539480965883 0.7944303676599538 0  6.058675797563041 0.2019812164653516 0  0.8203125 0.1643029084422534 0  0.1480856513011711 0.375 0  1.090769294689562 0.1719186776982972 0  7.291088163206459 0.5 0  7.094502414936563 0.5197902199074071 0  0.6046212059042245 0.5730066483871106 0  1.707231580809486 0.6342709161352207 0  1.685961352504593 0.8193269193390785 0  1.374721602852827 0.4600373025865813 0  6.486415510043844 0.5916440776477192 0  1.5234375 0.1508863828685116 0  1.707925830421689 0.3657739208189008 0  0.1674513225045584 0.8278776664019765 0  7.138268756771176 0.1438183366439137 0  7.1484375 0.8616388888888887 0  7.328562530764119 0.819498462930605 0  4.101073710123698 0.3678637200736647 0  1.693878467219965 0.1911955120941053 0  1.577566745468488 0.5110082404081502 0  6.6796875 0.8653871806883484 0  6.498039504430512 0.825568433346395 0  0.7562556668576472 0.8333197949571929 0  4.101045914668806 0.6255195807449272 0  5.030745188395182 0.382829047309028 0  2.476364945868651 0.6095868094762166 0  2.729359843907322 0.8460525663191247 0  2.9296875 0.8740763101564099 0  3.163518307559356 0.6254622797994247 0  3.666859843907322 0.8460525663191247 0  3.8671875 0.8740763101564099 0  4.8046875 0.12592368984359 0  3.14936031382311 0.8606990583876851 0  2.4609375 0.8747622921397776 0  5.023140791101972 0.1392266772452574 0  0 0.125 0  0.1759922923594607 0.1727589856739889 0  4.5703125 0.125 0  7.327755777818006 0.1766156770456191 0  5.5078125 0.125 0  5.719712725029036 0.1460701015352787 0  4.327848962028002 0.3674169956512513 0  5.982681121544351 0.3692637923021713 0  3.398926289876302 0.6245417594909667 0  5.281756792511996 0.3827993367299961 0  2.226822645963271 0.6252438868405666 0  2.234390064317166 0.8676616584526566 0  5.2734375 0.125 0  1.96796875 0.382568359375 0  2.234651037971999 0.3674169956512511 0  1.984114583333333 0.132568359375 0  1.9921875 0.875 0  1.984114583333333 0.632568359375 0  5.748733794462357 0.8678269127183313 0  3.3984375 0.875456329184688 0  1.512925924995415 0.8582958012121853 0  1.359299372802969 0.6275861864990343 0  4.810521420483513 0.4041767793635395 0  0.2996213306116602 0.455339710363317 0  5.999933717403708 0.6388425470751088 0  5.250033449003657 0.6388713364551682 0  3.631676045992918 0.3525406652400928 0  4.3359375 0.8816499670325881 0  4.343577437052484 0.6116511299909198 0  3.375033449003656 0.3611286635448316 0  5.763152151652243 0.6249404690537395 0  4.549347848347757 0.6249404690537396 0  5.5004588702411 0.6403667365776566 0  5.976118394847484 0.8816230218343086 0  5.054722486865804 0.6338007028640954 0  3.164542163493752 0.3520519332736524 0  2.445407482032355 0.3672168403687257 0  4.8046875 0.882568359375 0  4.1015625 0.117431640625 0  2.4609375 0.117431640625 0  2.695556894938151 0.3520510350344335 0  2.929443105061849 0.3520510350344335 0  3.881979231817319 0.3670559016511187 0  3.8671875 0.117431640625 0  4.805389247695744 0.6470047893641744 0  3.399370721942191 0.1184066543556767 0  5.274370721942192 0.881593345644323 0  3.618253274934649 0.1316869186284249 0  2.6953125 0.1171877537844335 0  2.9296875 0.1171877537844335 0  2.21873344389451 0.125 0  4.3359375 0.1171877625080073 0  0.6659898565672709 0.3986593551313873 0  7.363359022954956 0.3481046411219251 0  7.363359022954956 0.6518953588780749 0  5.487719392831826 0.3828237631077121 0  2.695054578344725 0.5809158475691247 0  2.944553877887707 0.5964065668438148 0  0.3515625 0.1201898858097106 0  5.5078125 1 0  4.5703125 1 0  5.031746201297604 0.882568359375 0  3.1640625 0 0  6.2109375 1 0  6.186845385763124 0.6336356480571081 0  4.1015625 1 0  6.810399074069772 0.6495574751396682 0  0.4740615253480797 0.2509287743856873 0  7.052064303830151 0.3684417917792242 0  6.195177069665382 0.1216488332168849 0  5.72300154718324 0.4112068202852788 0  3.879157465495092 0.6111892850691246 0  3.645760045247695 0.5809158475691247 0  6.868257400485771 0.3427840810237202 0  6.612030892260864 0.1521752713064389 0  6.615666885941117 0.3151079644097221 0  4.04296875 0.8633718902669071 0  1.183031453639096 0.8486801864185936 0  6.9140625 0 0  6.859079526500421 0.1398292786950638 0  6.808232443325651 0.7957411753922057 0  6.9140625 1 0  4.544955211100143 0.3675874343205077 0  1.0546875 1 0  6.122060236165557 0.3316791557072867 0  0.5859375 0 0  5.9765625 0 0  5.44921875 0.870984788733638 0  4.51171875 0.870984788733638 0  0.7608354256382215 0.2931261274224557 0  6.386875332239937 0.3156583003094978 0  6.985654756850997 0.6147408423643147 0  6.223797257919172 0.8535621912121121 0  5.936822413218736 0.1338376546337823 0  6.23933008800134 0.4095573603773768 0  0.5414022462152697 0.1305482677949959 0  6.331360438104348 0.1370086318183389 0  0.956404929269873 0.1374266563647954 0  1.2890625 1 0  0.691305981127761 0.6764829884281737 0  3.531251607241209 0.8678916320952239 0  2.59787442813022 
[...]
<PointData  Scalars="f_71633"> 
<DataArray  type="Float64"  Name="f_71633"  format="ascii">6.6895411635243529e-01  6.7013350779197067e-01  0.0000000000000000e+00  0.0000000000000000e+00  -1.4841755263540894e+00  -1.5099868701449402e+00  -1.3044677948938657e+00  -1.0393710356240256e+00  -8.9014369473118715e-01  -7.9556806739717678e-01  -7.3597245150228785e-01  -7.4257109674022836e-01  -7.4232121084574554e-01  -7.6048279188795331e-01  -8.2194841159146859e-01  -9.2955514617203228e-01  -1.0243655288274207e+00  -1.0304465814531909e+00  -8.4429672701904535e-01  -5.0006311635439837e-01  -4.1040684095523744e-03  5.5237453046890739e-01  1.0760010349261064e+00  1.5192423237376591e+00  1.7792145487975739e+00  1.8180477911052850e+00  1.6195776877972754e+00  1.2218721217412503e+00  6.5265704383534329e-01  4.9299603196186786e-02  -5.9223532654440347e-01  -1.1956346050283582e+00  -1.6478119795355872e+00  -1.9355774805731514e+00  -2.0499841710266833e+00  -1.9289134297064467e+00  -1.7167811762794849e+00  -1.5104288401295323e+00  -1.3639227368119533e+00  -1.2765167816841689e+00  -1.2213062118736200e+00  -1.2042155164549473e+00  -1.2615539870243664e+00  -1.3606167710008155e+00  1.2160103272575454e-01  -2.8376427456248010e-01  -1.1134629493424522e-01  -7.8236025365518921e-02  1.8120677744168248e-01  -1.3480166400830376e-01  -3.8911403833639596e-01  1.3811557006234298e-01  -4.7839875691514833e-01  -4.4381347033751878e-01  7.3276051915057239e-01  -2.5711489333055237e-01  7.6575864893308060e-02  -2.8661639692411744e-01  1.3071114854357252e-01  -1.0407786341662011e+00  -5.9213189706988167e-01  -1.4955328587280853e-01  -1.2635623457818163e-01  -1.0113385359085318e+00  0.0000000000000000e+00  -2.6502896303860973e-01  -1.6474948960875546e+00  7.0449437062904463e-01  6.2710236036530709e-01  -2.9523167631363340e-01  8.0989573175343582e-02  -5.9370093610086250e-01  -1.6885570744254259e+00  -1.5450614853066430e-01  2.1717648863646716e-01  -5.8141833175336588e-01  -1.0291783956117473e+00  -1.7430187951333090e-01  -4.4746846065511867e-02  -2.5641372559464165e-01  3.0308211928252804e-01  2.0314901970281102e-01  5.9878241434846387e-02  -2.4943345577318030e-01  6.5775654061286193e-01  -3.4589485268777420e-02  -1.5399244980424107e-01  8.0179795351339678e-01  -4.1961966278945950e-01  -2.1703997328159075e-01  -1.0892184940538700e-01  -6.4461827902479940e-01  1.4217386278644503e-01  -1.5323633706588777e+00  -1.0104011759630410e-01  -6.8379367966018512e-01  -6.2569733440063968e-01  -1.2585279317419212e-01  -9.9461060645041000e-01  -3.3375873524030081e-01  6.8179269596124847e-01  1.5678369011270868e-01  -3.9806962326928785e-01  1.8693776227315553e-01  -1.1376422740203025e+00  2.3379518436297064e-01  -9.4065932104141470e-01  2.5429486875325635e-01  -1.7543599641466276e-01  -4.2634827741658710e-01  -1.2180940486538241e+00  2.7057549055912702e-02  -2.9413918244315418e-01  9.7562091453595623e-02  -5.9412771851135404e-01  6.9939151220409035e-01  8.6352785398990758e-02  6.5687994494258395e-01  6.7938919741091019e-01  3.8105709892109693e-02  6.7007093970224318e-01  -1.7059210835933053e-01  7.3725104753145787e-01  -3.5852317970804409e-01  -4.3553955011531958e-01  7.5271524022845621e-02  -1.8014150705578508e-01  0.0000000000000000e+00  1.6771303057408066e-01  0.0000000000000000e+00  -1.1044221302349734e-01  -2.2784006714918686e-01  -8.3793125857450190e-02  1.8084321595859371e-01  -6.2635297050596483e-01  -2.4772554361538146e-01  -1.1170272195723872e+00  -5.4271691239315334e-01  5.5215658749988239e-02  -1.0607055950237567e+00  -3.3624462292482393e-01  1.6802359876599629e-01  -2.2747693055261303e-01  -1.3709924356274997e-01  -4.2839004919424378e-01  -1.4405216802864058e-02  -1.4259427932435103e+00  -5.5991914135130783e-01  -2.4989242773533854e-01  5.3001391966312028e-01  3.2851503671807287e-03  3.7625899969235993e-01  -4.4332436243614920e-01  -1.1811648601266855e-01  -4.3382785298338777e-02  1.6982122428577356e-01  2.4703663160917733e-01  -4.0370177670113916e-01  1.9455706713772533e-01  -7.2058762360542483e-01  -1.9781452850356648e-01  7.8599639573999514e-02  -3.0859928346056015e-01  -2.1480544217194797e-01  -1.1865801786441310e-01  5.4007249257026761e-02  -5.7700788482831067e-01  2.2617230127466670e-01  -4.8550524538032702e-01  1.9201335591513716e-01  -1.2876940504748816e-01  5.1813636040225863e-01  -4.5392843371515684e-01  -3.4587182784542264e-01  -4.1735233812032041e-01  -8.4557645932449327e-02  6.6113535831140657e-01  1.0281920893958614e-01  -8.6917559203742667e-02  -8.1462067290844042e-01  -5.1045801570122318e-01  -1.0331597785338378e+00  -6.3896804809381613e-01  -1.5882777961673376e+00  -1.1666498595268782e+00  6.8202751489916158e-01  8.6333040267896399e-01  7.0898569829607105e-01  -7.2940050854231697e-01  -1.7952458357528825e-01  -6.1657780179723387e-01  -9.2982039211239997e-01  7.0495703196786802e-02  3.5267731659361118e-01  7.0190397629847101e-01  -2.0900829076648136e-01  -4.6768672167908237e-01  -6.6519720543670868e-01  1.1141801818513499e+00  -7.8837241570954941e-01  -5.3492901426308703e-01  -1.7307145311683445e+00  -2.5000592831065754e-01  1.1538985067862609e-01  -9.2651565233553446e-01  6.7372692519899258e-01  1.8491240816670901e-01  -5.7689908896634789e-01  -8.4583883047539521e-01  -6.1980123403393728e-01  -5.5521437302829248e-02  -1.1102940052813206e+00  1.9831949553413059e-01  1.2367200338032107e-01  4.0105147405506542e-01  -1.0052230090276173e+00  -5.1635969048518393e-01  -7.8199235399101424e-02  -4.7468776580821587e-01  -5.4996850455882784e-01  -3.4234180547462173e-01  -1.0688683733279044e-02  -7.1763771079135064e-01  8.1643873106342236e-03  6.4044849914129648e-02  1.9246219995344252e-01  2.1069567886998969e-01  6.7130122460247166e-01  6.7256499631594791e-01  -6.2452985509934189e-01  8.1427731801394565e-02  -5.1859937000793110e-01  -4.0521686088970543e-01  -3.3405182242945924e-01  -2.7650652438036327e-01  1.3146392327333520e-01  -4.5285428612446249e-01  7.5402132000550195e-02  2.2295435565697841e-01  7.5818653051764356e-02  -6.2051810998411383e-01  -2.8547804113835912e-01  -4.0982965256134385e-01  7.8609569557604633e-02  -4.1119417816620590e-01  1.2003538739455909e-01  2.5215328209578647e-01  -6.0807392610708377e-01  -2.1024745481743712e+00  -5.6177847508090906e-01  7.5172294926689220e-01  -1.2481733850988972e+00  -7.5820619610640350e-01  -2.3896567307914013e-01  1.3996830257021264e-01  -6.7975772868152998e-02  -5.9301117415143612e-01  -1.8364000763336777e-01  1.0985616419279792e-01  9.3855300310461937e-02  -4.3954442506612640e-01  -1.6128767887250581e+00  -4.1412035603338015e-01  -4.8506095663342891e-01  -1.8624977656213257e-01  -1.0411547443608880e-01  -1.1510940542972623e+00  -7.1272353747038009e-01  -6.1306375393260082e-01  -6.0823546557571462e-01  8.7965567964654129e-02  -7.6508228230048514e-01  -2.9873994464191073e-01  1.9899434982220909e-02  7.9506238596177670e-02  7.7216826547430020e-02  4.6073106928550855e-01  -3.7176606636945358e-01  -3.4644428268109095e-01  1.0185457831594793e+00  -3.0571636034884705e-02  -7.6256401548831398e-01  -5.5341382671122996e-01  -1.1468878618118870e+00  -1.9285764316369958e+00  6.5073060787251646e-01  2.3183255823270130e-01  2.2711182089216769e-01  -6.0378304254481951e-01  1.4898612184438048e-01  -4.7200058208658674e-01  -1.2439566859423381e+00  -3.5769427751372190e-01  -1.7333907798721914e-02  6.9355080412973158e-01  -1.6761061294209864e-01  1.1341476994534713e-01  -4.4454990012805795e-01  -2.1227596473282841e+00  -5.3725788376758843e-01  -5.2844214307944526e-01  -4.5504978764034598e-01  -6.5269792942884053e-01  -6.2217637669045489e-01  -8.0456468620450328e-01  -6.4121134722037371e-02  -2.6564807357728853e-01  1.1622467182597009e-01  1.0388584372541122e-01  -6.2110829002450374e-01  -4.8916629691818447e-01  -2.3703215247136883e-01  5.9305749239845207e-01  7.4923502751320523e-02  2.1478813644810033e-01  1.8695022548117099e-01  5.6639409528484741e-01  -2.0562957762656214e-01  -4.4312818399375825e-01  -6.6625968104454347e-01  2.2431495384697690e-02  -3.8817052110319322e-01  6.1953626874707413e-01  6.1322254083055049e-02  8.5748871157483100e-02  -4.5607681786453580e-01  9.9750647433242301e-01  1.3365552681980331e-01  2.8580265707156556e-02  -1.2314908859162803e+00  -2.5532860584001832e-04  8.3640436496247555e-02  7.5396191291692405e-01  6.6648806430583873e-01  -3.9071068669710696e-01  -2.9347916090242060e-01  -2.2559799245767220e-01  -1.8380029891940311e-01  -1.6819791797100336e-01  -1.2979448908990074e-01  -5.9880423029551721e-01  6.1148102549809136e-01  -6.7539818109926553e-01  6.9498771305264673e-01  -7.3576343772615138e-01  7.1905831835120315e-01  2.1104000529180980e-01  -4.4697683832635277e-01  -1.3287106692099684e+00  -3.0277894806976197e-01  -1.2380142494515800e+00  -4.7261919776657479e-01  -8.1565581618845828e-01  -1.0345524504984456e-01  2.2921578379948379e-01  0.0000000000000000e+00  0.0000000000000000e+00  6.6999083080825039e-01  6.9638456770494006e-01  6.9429233207243313e-01  0.0000000000000000e+00  0.0000000000000000e+00  -1.2675450301022054e-01  2.8306633789450897e-01  -9.8264572632185118e-02  -2.1232592647728574e+00  -7.7969325758179303e-02  -3.9523995304919686e-02  6.6780729590257248e-01  -9.4273617803297318e-03  5.3085550937839965e-01  -4.2576700578933169e-01  7.2052672516074417e-02  -4.6998920012046713e-01  2.7088137546326933e-02  -4.2930822087669317e-02  -4.8431185012495670e-01  -4.6245311793800675e-02  1.8721315415808865e-02  7.4561902740045344e-02  1.3227291487136830e-01  1.7832138360987068e-01  1.9810091830519477e-01  6.6898117796102741e-01  5.8580388277882078e-01  -3.8710494536011536e-01  -7.1135503419162194e-01  -5.2632946982374518e-01  -4.0098753048680369e-01  -8.2030746330179527e-01  -3.1126257013269643e-01  -3.1010391450462310e-01  -1.8314725324798517e-01  -2.4986990960137712e-01  6.4868245599063595e-02  -1.6578445198032862e-01  -9.6424046932765894e-01  -9.5847415273506015e-02  -3.4756483845268560e-01  -4.2462251099199873e-03  -1.3943413947952257e+00  -1.0425146736957372e-01  8.6129733664675190e-02  -8.6397560251724714e-01  -2.7636536817856794e-01  -4.5155517239151610e-01  -1.3474186978455978e+00  -1.2512617071493979e+00  -7.2980008492348891e-01  -1.8080303755313007e+00  -7.4162605651669689e-01  -8.3216909574778217e-02  -2.6764993752140764e-02  1.4886518629959947e-01  8.7558177141389734e-02  1.5115314303889893e-01  1.8977274922204068e-01  -5.5413727292000670e-01  -5.4343506099414118e-01  -4.3306586324338253e-01  -1.1298545829759990e-01  1.0013419496205242e-01  -1.5513492255106148e-01  -2.3993351295276041e-01  -4.2354444087579862e-01  -1.6066322353190038e-01  -3.3935503534619776e-01  -5.6832612751563294e-01  -1.2295111032918713e+00  -4.0096971868055042e-01  -5.0964930666548380e-01  -3.5282318423031700e-01  4.1346722990226389e-02  -4.8391344254460117e-01  -1.0358544559830740e+00  -1.7833094630039509e-01  8.9968629504481076e-02  6.4525529405768278e-01  -3.2876630768396709e-01  -3.9779572821878578e-01  5.7160116687384832e-01  5.2025752375768730e-01  6.2737512555168884e-01  -2.0579520539156812e-01  -1.1453154611727373e-01  4.3106357783065485e-02  -1.0284055509386418e+00  -1.2166954365908164e-01  -1.8276526073442309e-01  1.3471648603594555e-01  9.1356956087188759e-02  2.5693071387643690e-01  1.1246067261207174e-01  1.0559082398665334e-01  -3.4968774912914280e-01  6.2670339089831689e-02  2.2429227304194019e-01  -2.4039553206992567e-01  -1.9308674762697478e-01  -3.9911987335573756e-01  -4.7012481690293201e-01  2.5249154342652558e-01  1.7992403042593158e-01  1.8067857504315443e-01  1.2308062783144982e-01  -5.2114554714036587e-01  6.4418062010130520e-02  -4.0071309687805517e-01  -2.2346680570144595e-01  2.6341056949428632e-01  1.5044597801579548e-01  1.7916476309981089e-01  3.9538719728338709e-02  3.9668478829922660e-01  -1.7225308558915040e-01  6.6518916890047763e-01  -3.7152713882760152e-01  7.5290639676914753e-02  7.5655143708028214e-02  -4.9442214410046975e-01  -3.8633784001030413e-01  -4.6778900972563481e-01  2.1047443959179338e-01  -3.9856075620228637e-02  -3.6845664317642468e-01  6.3510831849421037e-02  -2.0481261727588150e-02  -1.9397436264976056e-02  -1.7416081357223109e-02  -6.4877958764095001e-01  -4.2614998460581227e-01  5.2886512927009955e-03  -2.7175754074724884e-01  -4.8336706868324758e-01  -7.9785944824867228e-01  1.8836105076612594e-01  3.6051513968159615e-01  -9.5365809580224181e-01  -5.8899813384806232e-01  -3.6089628100574178e-01  -3.6605370626430205e-02  -7.0801789230622492e-01  -8.6511201996743425e-01  -9.9775322348651024e-02  -1.1442150159457003e+00  -2.9518047025419125e-01  -2.1706295343694204e-01  -5.1014822409084615e-01  -1.7140696772741396e-01  -5.2125930968264544e-01  -5.2657069824439195e-01  -3.9971310223447215e-01  2.2266206036779179e-01  -8.5758977314508833e-01  -6.2012354634815359e-01  1.1709371865678196e-01  -1.0523629525385847e+00  -1.6141765228470433e+00  -1.5970996758727378e+00  -1.3827645515087827e+00  -2.1310978509181009e+00  -2.6358533207088658e-01  -9.5749647618364508e-01  -1.8453220689994119e+00  -1.1094240357949297e+00  9.9223497786558076e-02  -8.8047434235522004e-01  -1.0031287984039268e+00  -1.0206377446015067e+00  -3.8150160351538565e-01  6.6973850511718058e-01  -3.1494137922181370e-01  -1.5033613205727650e-01  -7.4272437433441807e-01  -3.4793524800593872e-01  -2.2016777171768123e-01  2.5165455779450369e-01  7.0372736489793031e-01  6.8972145361404713e-01  7.3725036114566067e-01  -2.4830119778732074e-01  -1.2680828358037408e-01  -4.8947121096560420e-01  8.2065583526904717e-01  7.5500753624739192e-01  7.8500435566686078e-01  -4.7634412581566721e-01  -9.7845433439214946e-01  -9.6828433734062669e-01  -7.0914522404291025e-01  -4.1167194299162790e-01  -6.3418298217979885e-01  -5.6892007206973627e-01  9.5229977413193378e-01  8.9380418677145212e-01  -5.5227232178853802e-01  -5.3768837934206493e-01  -3.7835258308729536e-01  -4.5174707446177176e-01  -1.5280701434630186e+00  -3.4581195926333286e-01  -9.4092168560633915e-01  -1.6663262855251854e-01  -4.3701920724344268e-01  -7.0437273743044648e-01  -4.1147227196640968e-01  6.5802569475290493e-02  1.4557185561691011e-01  -4.6754935150025539e-01  1.4040324744097679e+00  6.4133449697287279e-02  -5.2208447270220747e-02  -6.5068622699607870e-01  6.8611167705687026e-01  6.8824752905479092e-01  7.1948636657748377e-01  -3.7026513668608652e-01  -4.6580662351859498e-01  -3.4238664221922138e-01  9.6850833431701505e-02  6.6907337060034677e-01  1.0920675812152641e-01  -3.9910100600213361e-01  -2.1535745860126221e-01  -3.0977660450016103e-01  -5.4155706093782474e-01  2.0691344217020632e-01  9.2711348536128235e-01  -3.2829764656315596e-01  7.3272482801282623e-01  -2.0825577907792789e+00  -1.0135912601841910e+00  1.7946189756162340e-01  -1.2660463018795705e+00  -7.3230597386962271e-01  -6.1252471290357169e-01  -6.6490158303170188e-01  6.6631048506286783e-01  7.0594388653823470e-01  2.9289545494091695e-01  2.1130214718299578e-01  -7.6876635118862091e-01  8.8405777741132230e-02  8.6172242081143310e-02  1.2258282744946183e-01  -2.2653452760782514e-02  -9.9604501085340058e-01  -5.7347716949121597e-01  6.6158051983414079e-01  -2.5811081272362341e-01  -4.1551100312968497e-01  -1.4637165533580523e+00  -9.1996434054407383e-01  -1.9361984510017149e-01  -5.3376721227718305e-01  6.3323208493365823e-01  -8.5217946235966360e-02  1.0179326710923498e+00  -4.1450001204224679e-02  -1.1503197037162913e+00  1.8118280059155081e-01  -1.0191751471914976e+00  2.3262347680121526e-01  -5.7927680895997780e-01  9.6507951279509070e-03  -7.6322397387192165e-01  -8.5577352057675338e-01  -8.9461127851657563e-01  -4.6976451780291295e-01  5.2323854931364355e-01  6.6871671986776171e-01  6.7319412839385151e-01  -1.1266928948291272e-01  -5.6848914522214231e-02  8.5395339538093737e-02  -6.6206862009641565e-01  6.7068868339935095e-01  1.0601920980107439e-01  6.6916021567140016e-01  -2.2115331374110311e-01  -7.6952822009140928e-02  -2.8393927069888475e-01  2.2359696337608398e-02  6.7579188946868840e-01  -1.0006514028217374e-01  5.9758979112104212e-02  -9.1082229081392574e-02  -3.4685908713761726e-01  1.6238561240501870e-01  1.5400029136281546e-02  1.3338514392861717e-01  6.5972754830550995e-01  -6.0774885457155325e-01  -9.0309223615481951e-02  3.8184126589617440e-01  -5.1551964621477298e-01  6.6758277102565311e-01  -9.3317019286445868e-02  -1.5117293303189694e+00  -6.8761000708011513e-02  -1.9920353857468337e-01  9.0201654334488221e-02  5.5177585700036447e-01  -3.3290356988118774e-01  -6.3950841551614557e-01  -4.6418783500028804e-01  -4.8109976338339094e-01  -9.5203827737662627e-01  1.9439605730307180e-01  4.6382303465964653e-01  9.0322166260541836e-01  2.0657355964951990e-01  -3.9948647909632246e-01  -1.3767221082989823e-02  -9.7339188076878169e-01  -6.1182924408420925e-01  -2.5198329077447640e-01  -3.4181988537563640e-01  4.7665038624586042e-02  -5.8314084189895909e-01  5.9483175976653792e-02  -2.9496940562455137e-01  -6.8822620006873148e-01  2.7207357959458101e-02  -2.4239841601675713e-01  1.9979325268110246e-01  -9.2617836154457941e-02  5.2314635496286066e-02  -1.1831089540712312e+00  -8.6158682481035620e-01  2.6313936037260049e-01  1.0905570712849841e-01  -7.6677131731348303e-01  -9.1708955766523936e-02  -1.9803630230529731e-01  -1.1369182580453197e-01  -1.0670988806929253e-01  -2.8377491146459372e-01  -7.1471304888232168e-01  8.9633034614021362e-02  7.6342780944713695e-01  1.8897566147199701e-01  -6.8882972472359727e-01  -2.6930790947474065e-01  -3.6143561793940632e-01  -2.5018481273204562e-01  -3.1537185654159872e-01  -3.6662211601916167e-01  -1.2439395847887329e+00  -2.0339429190977126e-01  -4.8211776227034187e-01  -4.8657651787341699e-01  1.9838146413058661e-02  -5.2240078358212039e-01  -2.4300735730370954e-01  -4.2023964828042742e-01  -1.2022559504126327e+00  -6.1428591965010870e-01  -2.0262987949590011e-01  2.2027042334112223e-01  2.0707186735096669e-01  -1.8494921353714062e+00  -3.8531265960180493e-02  -4.5181875493580814e-01  -1.9070432567508816e-01  -5.7561292633646655e-01  2.0697889718720633e-01  1.3184765093891448e-01  1.8231066308081659e-01  -7.3514292694852090e-01  5.5791694555451722e-02  1.1976942274140148e-01  2.9587264497540493e-02  1.3861054210942714e-01  -2.1654231236592179e-02  1.1716958819443928e-01  -1.7120145799659325e-01  -4.3087021371130241e-01  1.5531403759676621e-01  -5.2311837329892763e-01  1.3747012814998000e-01  1.3596550414115349e-01  -1.2518729600930639e-01  1.6696412067545616e-01  2.7022851327768438e-01  2.3157690667872327e-01  2.9064192692890573e-01  2.1272553707137776e-01  6.3081907099627033e-01  2.0685746627922075e-01  1.3291048759814286e+00  -1.0841986543777984e+00  -1.1752664116521887e+00  1.0186982209212289e-01  -1.6228263518920814e+00  -8.3926300600066295e-01  -7.9457096042733721e-01  1.0912200621327126e+00  -1.1886991044509780e+00  1.3127890620175047e+00  -6.9705571968724123e-01  -4.5964428655573319e-01  -1.1813290088047217e+00  -8.3752259069867796e-01  1.6048659810138364e+00  -1.1392925286763638e+00  -1.8185052253396100e-01  -1.2738841269608940e+00  2.1247745749070493e-01  -1.6125065480445600e+00  -6.8505114324808836e-01  -9.6988751533801787e-01  6.6139375576258930e-01  -1.4062561444939152e+00  -1.4209744731945753e+00  1.6105666326122141e+00  9.7867866455394770e-01  -1.5100101135221360e+00  -1.4225555957796052e+00  -1.4955227838345648e+00  -1.4129830263891690e+00  -1.5059776018193765e+00  -1.1514644408446384e+00  -1.1867576975056837e+00  -1.4633761875618700e+00  -9.4715198070837547e-01  -1.0671046138545448e+00  -8.7802939909235045e-01  -8.3779113343815337e-01  -8.4540079629811882e-01  -7.5607277922103744e-01  -8.2109493997338323e-01  -7.3723816403892228e-01  -7.6088545912933847e-01  -7.9511803042754181e-01  -7.4328332974250688e-01  -7.6071834336353095e-01  -7.3568176733678181e-01  -7.4739503918577987e-01  -7.3288882320041371e-01  -7.8561328082746207e-01  -7.3557355873052499e-01  -7.8286202659496362e-01  -8.7089896677501011e-01  -8.0895799231818388e-01  -9.7075380123225152e-01  -8.3935550622084731e-01  -1.0108759157382867e+00