<?xml version="1.0"?>
<VTKFile type="UnstructuredGrid"  version="0.1"  >
<UnstructuredGrid>
<Piece  NumberOfPoints="4269" NumberOfCells="8234">
<Points>
<DataArray  type="Float64"  NumberOfComponents="3"  format="ascii">0 1 0  0 0 0  7.5 0 0  7.5 1 0  1.197537668119028 0.5812868930080463 0  1.2 0.55 0  1.197537668119028 0.5187131069919538 0  1.190211303259031 0.4881966011250105 0  1.178201304837674 0.4592019000520907 0  1.161803398874989 0.4324429495415054 0  1.141421356237309 0.4085786437626905 0  1.117557050458495 0.3881966011250105 0  1.090798099947909 0.3717986951623264 0  1.06180339887499 0.3597886967409693 0  1.031286893008046 0.3524623318809725 0  1 0.35 0  0.9687131069919538 0.3524623318809725 0  0.9381966011250105 0.3597886967409694 0  0.9092019000520906 0.3717986951623264 0  0.8824429495415054 0.3881966011250105 0  0.8585786437626904 0.4085786437626905 0  0.8381966011250105 0.4324429495415054 0  0.8217986951623264 0.4592019000520907 0  0.8097886967409692 0.4881966011250107 0  0.8024623318809725 0.5187131069919539 0  0.8 0.55 0  0.8024623318809725 0.5812868930080463 0  0.8097886967409693 0.6118033988749896 0  0.8217986951623264 0.6407980999479095 0  0.8381966011250105 0.6675570504584947 0  0.8585786437626906 0.6914213562373096 0  0.8824429495415054 0.7118033988749896 0  0.9092019000520907 0.7282013048376736 0  0.9381966011250106 0.7402113032590307 0  0.9687131069919539 0.7475376681190276 0  1 0.75 0  1.031286893008046 0.7475376681190276 0  1.06180339887499 0.7402113032590307 0  1.090798099947909 0.7282013048376736 0  1.117557050458495 0.7118033988749896 0  1.141421356237309 0.6914213562373095 0  1.161803398874989 0.6675570504584947 0  1.178201304837674 0.6407980999479094 0  1.190211303259031 0.6118033988749896 0  3.75 0 0  3.75 1 0  1.875 0 0  1.875 1 0  0.9375 0 0  0.9375 1 0  1.40625 1 0  5.625 1 0  5.625 0 0  2.8125 1 0  2.8125 0 0  4.6875 0 0  4.6875 1 0  6.5625 0 0  6.5625 1 0  5.15625 0.5 0  4.21875 0.5 0  2.34375 0.5 0  3.28125 0.5 0  6.09375 0.5 0  7.5 0.5 0  6.897916666666666 0.5 0  1.842708333333333 0.5 0  0 0.5 0  0.46875 0 0  5.625 0.5302734375 0  7.03125 0 0  6.09375 1 0  2.8125 0.4697265625 0  3.28125 0 0  2.34375 1 0  2.34375 0 0  3.75 0.4697265625 0  4.21875 0 0  4.21875 1 0  4.6875 0.5302734375 0  3.28125 1 0  5.15625 0 0  6.09375 0 0  5.15625 1 0  0.46875 1 0  1.40625 0 0  7.03125 1 0  0.3954638734376499 0.5975780249976004 0  6.495833333333334 0.4072265624999998 0  5.859375 0.25 0  4.905729166666666 0.26513671875 0  4.453125 0.25 0  3.531770833333333 0.73486328125 0  3.968229166666667 0.73486328125 0  2.594270833333333 0.73486328125 0  3.030729166666667 0.73486328125 0  6.328125 0.75 0  7.198958333333334 0.3125000000000002 0  7.198958333333334 0.6874999999999998 0  5.390625 0.25 0  0 0.25 0  2.109375 0.75 0  2.109375 0.25 0  1.51921323205749 0.3418883887525936 0  1.522346610178253 0.6811769608297746 0  5.375456746419271 0.75 0  4.921875 0.76513671875 0  4.437956746419271 0.75 0  3.984375 0.23486328125 0  3.500456746419271 0.25 0  2.578125 0.23486328125 0  3.046875 0.23486328125 0  5.874543253580729 0.75 0  6.642123189445656 0.6909095493086836 0  6.746354166666666 0.2391688368055553 0  0.3197109619185111 0.2850049285972083 0  6.328125 0 0  0.6313375889370429 0.2351325552547357 0  0 0.75 0  6.252283381534729 0.2693808819694041 0  0.234375 1 0  6.948437500000001 0.7543055555555555 0  0.5934018769555939 0.7694151657947577 0  1.858854166666667 0.75 0  1.858854166666667 0.25 0  1.640625 0 0  2.093229166666667 0.5 0  7.5 0.25 0  3.282227579752604 0.75 0  7.5 0.75 0  1.171875 0 0  1.303539853147731 0.2235426933121065 0  5.148177083333333 0.2575683593749998 0  2.351822916666667 0.742431640625 0  1.640625 1 0  4.202380413457425 0.7645435094236485 0  3.047822985053062 0.4701848030090332 0  2.577177014946938 0.4701848030090332 0  4.672792740482199 0.76513671875 0  4.922822985053062 0.5298151969909668 0  5.390593497949761 0.5156244924311331 0  5.610292740482199 0.76513671875 0  3.516602579752604 0.5 0  4.45496853898097 0.4865915990446593 0  5.85753146101903 0.4865915990446593 0  3.749511210123698 0.23486328125 0  3.983397420247396 0.4999999999999999 0  2.343497975411212 0.2346270081980111 0  4.219002024588788 0.2346270081980111 0  0.703125 0 0  2.8125 0.2343755075688669 0  3.046875 0 0  2.578125 0 0  3.515625 0 0  3.984375 0 0  4.453125 1 0  5.390625 1 0  2.109375 0 0  2.109375 1 0  5.625 0.2921402030705575 0  5.390625 0 0  7.265625 0 0  6.796875 0 0  6.328125 1 0  3.046875 1 0  2.578125 1 0  3.984375 1 0  3.515625 1 0  4.453125 0 0  4.921875 0 0  5.859375 0 0  0.703125 1 0  1.171875 1 0  7.265625 1 0  4.921875 1 0  5.859375 1 0  0.234375 0 0  6.796875 1 0  6.980310975276531 0.2285890127127066 0  5.149170481934885 0.772689292163473 0  3.274170481934884 0.2273107078365268 0  6.101334126790364 0.7722468376159667 0  4.678005340872584 0.3000799877067239 0  2.8125 0.6921051326382495 0  3.75 0.6921051326382495 0  0.3515624999999999 0.8134571721668546 0  0.4990405774417521 0.4070099317153735 0  0.1789273931360182 0.625 0  6.31239060814315 0.5298877111157968 0  6.456979773992304 0.1917956348713352 0  6.699870808919271 0.4406293402777773 0  1.337539480965883 0.7944303676599538 0  6.058675797563041 0.2019812164653516 0  0.8203125 0.1643029084422534 0  0.1480856513011711 0.375 0  1.090769294689562 0.1719186776982972 0  7.291088163206459 0.5 0  7.094502414936563 0.5197902199074071 0  0.6046212059042245 0.5730066483871106 0  1.707231580809486 0.6342709161352207 0  1.685961352504593 0.8193269193390785 0  1.374721602852827 0.4600373025865813 0  6.486415510043844 0.5916440776477192 0  1.5234375 0.1508863828685116 0  1.707925830421689 0.3657739208189008 0  0.1674513225045584 0.8278776664019765 0  7.138268756771176 0.1438183366439137 0  7.1484375 0.8616388888888887 0  7.328562530764119 0.819498462930605 0  4.101073710123698 0.3678637200736647 0  1.693878467219965 0.1911955120941053 0  1.577566745468488 0.5110082404081502 0  6.6796875 0.8653871806883484 0  6.498039504430512 0.825568433346395 0  0.7562556668576472 0.8333197949571929 0  4.101045914668806 0.6255195807449272 0  5.030745188395182 0.382829047309028 0  2.476364945868651 0.6095868094762166 0  2.729359843907322 0.8460525663191247 0  2.9296875 0.8740763101564099 0  3.163518307559356 0.6254622797994247 0  3.666859843907322 0.8460525663191247 0  3.8671875 0.8740763101564099 0  4.8046875 0.12592368984359 0  3.14936031382311 0.8606990583876851 0  2.4609375 0.8747622921397776 0  5.023140791101972 0.1392266772452574 0  0 0.125 0  0.1759922923594607 0.1727589856739889 0  4.5703125 0.125 0  7.327755777818006 0.1766156770456191 0  5.5078125 0.125 0  5.719712725029036 0.1460701015352787 0  4.327848962028002 0.3674169956512513 0  5.982681121544351 0.3692637923021713 0  3.398926289876302 0.6245417594909667 0  5.281756792511996 0.3827993367299961 0  2.226822645963271 0.6252438868405666 0  2.234390064317166 0.8676616584526566 0  5.2734375 0.125 0  1.96796875 0.382568359375 0  2.234651037971999 0.3674169956512511 0  1.984114583333333 0.132568359375 0  1.9921875 0.875 0  1.984114583333333 0.632568359375 0  5.748733794462357 0.8678269127183313 0  3.3984375 0.875456329184688 0  1.512925924995415 0.8582958012121853 0  1.359299372802969 0.6275861864990343 0  4.810521420483513 0.4041767793635395 0  0.2996213306116602 0.455339710363317 0  5.999933717403708 0.6388425470751088 0  5.250033449003657 0.6388713364551682 0  3.631676045992918 0.3525406652400928 0  4.3359375 0.8816499670325881 0  4.343577437052484 0.6116511299909198 0  3.375033449003656 0.3611286635448316 0  5.763152151652243 0.6249404690537395 0  4.549347848347757 0.6249404690537396 0  5.5004588702411 0.6403667365776566 0  5.976118394847484 0.8816230218343086 0  5.054722486865804 0.6338007028640954 0  3.164542163493752 0.3520519332736524 0  2.445407482032355 0.3672168403687257 0  4.8046875 0.882568359375 0  4.1015625 0.117431640625 0  2.4609375 0.117431640625 0  2.695556894938151 0.3520510350344335 0  2.929443105061849 0.3520510350344335 0  3.881979231817319 0.3670559016511187 0  3.8671875 0.117431640625 0  4.805389247695744 0.6470047893641744 0  3.399370721942191 0.1184066543556767 0  5.274370721942192 0.881593345644323 0  3.618253274934649 0.1316869186284249 0  2.6953125 0.1171877537844335 0  2.9296875 0.1171877537844335 0  2.21873344389451 0.125 0  4.3359375 0.1171877625080073 0  0.6659898565672709 0.3986593551313873 0  7.363359022954956 0.3481046411219251 0  7.363359022954956 0.6518953588780749 0  5.487719392831826 0.3828237631077121 0  2.695054578344725 0.5809158475691247 0  2.944553877887707 0.5964065668438148 0  0.3515625 0.1201898858097106 0  5.5078125 1 0  4.5703125 1 0  5.031746201297604 0.882568359375 0  3.1640625 0 0  6.2109375 1 0  6.186845385763124 0.6336356480571081 0  4.1015625 1 0  6.810399074069772 0.6495574751396682 0  0.4740615253480797 0.2509287743856873 0  7.052064303830151 0.3684417917792242 0  6.195177069665382 0.1216488332168849 0  5.72300154718324 0.4112068202852788 0  3.879157465495092 0.6111892850691246 0  3.645760045247695 0.5809158475691247 0  6.868257400485771 0.3427840810237202 0  6.612030892260864 0.1521752713064389 0  6.615666885941117 0.3151079644097221 0  4.04296875 0.8633718902669071 0  1.183031453639096 0.8486801864185936 0  6.9140625 0 0  6.859079526500421 0.1398292786950638 0  6.808232443325651 0.7957411753922057 0  6.9140625 1 0  4.544955211100143 0.3675874343205077 0  1.0546875 1 0  6.122060236165557 0.3316791557072867 0  0.5859375 0 0  5.9765625 0 0  5.44921875 0.870984788733638 0  4.51171875 0.870984788733638 0  0.7608354256382215 0.2931261274224557 0  6.386875332239937 0.3156583003094978 0  6.985654756850997 0.6147408423643147 0  6.223797257919172 0.8535621912121121 0  5.936822413218736 0.1338376546337823 0  6.23933008800134 0.4095573603773768 0  0.5414022462152697 0.1305482677949959 0  6.331360438104348 0.1370086318183389 0  0.956404929269873 0.1374266563647954 0  1.2890625 1 0  0.691305981127761 0.6764829884281737 0  3.531251607241209 0.8678916320952239 0  2.59787442813022 
[...]
<PointData  Scalars="f_71633"> 
<DataArray  type="Float64"  Name="f_71633"  format="ascii">7.0606311044218062e-01  6.9317192009568496e-01  0.0000000000000000e+00  0.0000000000000000e+00  -1.1232060181400922e+00  -8.9155618784157287e-01  -7.0619702470066648e-01  -5.8000012157678105e-01  -4.8905816730810692e-01  -4.3627032619576223e-01  -3.7805078255105867e-01  -3.9022906287848436e-01  -4.2282876185413781e-01  -4.8669154453172969e-01  -6.1997812103555872e-01  -8.2432981480608436e-01  -1.0094619781290717e+00  -1.0843530864723181e+00  -9.2570748360122657e-01  -5.9106635252962159e-01  -8.4503109558122000e-02  4.8595494127361832e-01  1.0219839241325277e+00  1.4851947625086337e+00  1.7640547644285132e+00  1.8236249120803409e+00  1.6484577381860399e+00  1.2766124901481162e+00  7.4304107010734322e-01  1.7289930695166159e-01  -4.2378196602167878e-01  -9.7391631242166676e-01  -1.3914106801387922e+00  -1.6697188177479014e+00  -1.8059851074687401e+00  -1.7652874515326977e+00  -1.6615749904168824e+00  -1.5548090594624588e+00  -1.4834662337859164e+00  -1.4427402610086966e+00  -1.4213767929732231e+00  -1.4011574424277993e+00  -1.3679739145257006e+00  -1.2874303046579680e+00  3.5500748323888630e-02  -3.3546926286636619e-01  -3.7568827837975027e-01  3.3208826338733222e-01  3.2625086437279710e-01  -2.6952896992508307e-01  -4.5756760247645706e-01  -2.7445321094753594e-01  1.4852955265735057e-01  3.2082191078978217e-01  1.9254804296104400e-01  3.4068515879291167e-01  -3.6947165685446537e-01  -1.4643355544151790e-02  1.2964157789819433e-01  -1.2544385719970069e-01  -1.2631461576501510e-01  -9.1103002498670083e-01  -3.4436445773546986e-01  -4.1688652897309453e-01  0.0000000000000000e+00  -6.9450934482065929e-01  5.8813339295679294e-03  7.3430962112982578e-01  7.0730011150668215e-01  -8.1572908943273859e-01  2.1043954728726333e-01  2.3082873846082580e-01  -5.0571396052706197e-01  1.1176253075893933e-01  -5.0002976257278411e-02  5.3716843243338219e-01  -9.6784128234760081e-01  -3.3764150338542742e-01  3.8766402145909495e-01  -1.6361310252844656e+00  1.3805972070615979e-01  -3.4496771329257842e-01  1.1433390910188747e-03  2.9356556234105635e-01  6.2928089389798270e-01  -1.6345600184323866e-01  -4.0521472162143163e-01  8.2351489931580524e-01  -4.2516595482133035e-01  1.5543806636488211e-01  7.8247869482876153e-02  3.2115050587441844e-02  -1.5939000427095031e+00  1.7904845777929743e-01  -1.6196551695031283e+00  4.7672458893893327e-01  2.0785490589925143e-01  1.2810413440206659e-02  -3.4951693502871656e-01  -4.9372110550504705e-01  7.0109763364108413e-01  2.9934893601097989e-01  -1.0875169891680838e+00  -1.4299450509265481e+00  3.3108742972233691e-04  1.8918409595087965e-01  6.0245129036437743e-02  -3.1063888671785705e-01  -1.1000790632067878e-01  -5.2046276242612786e-02  1.2728626527110171e-01  -5.8694212356682640e-01  -9.4793255662634202e-01  -2.3883444405344634e-01  9.4392215861864595e-02  7.3277433414200899e-01  -2.6415987296588528e-01  7.4600908844014124e-01  7.1865804107909437e-01  -5.1153597028121733e-01  6.9414390205942622e-01  -1.0108686464228980e+00  7.0568181195896051e-01  3.0339669263759517e-01  -3.0704397894777619e-01  -3.3690296799010788e-01  -7.8504149255925360e-02  0.0000000000000000e+00  2.7110037424542956e-02  0.0000000000000000e+00  -1.7302960094217355e-04  -3.2116073192588934e-01  -5.3287290246717489e-01  -3.5595618315914157e-01  6.5156551048520164e-03  3.9959611644505311e-01  -3.3425521876579811e-01  -1.2923275708822912e+00  -9.8029028418260011e-01  -4.0882049653501912e-01  -2.3254156708196555e-01  -5.4796286968263652e-01  -1.2494363324457598e+00  -5.8559453090219649e-01  -9.4035782344517760e-01  7.0506660422236704e-03  -1.9148826441858882e-01  7.5132329046149568e-02  -6.8332748814068667e-01  6.5935352540556780e-01  -1.2228508389061070e-01  -3.8611674984226907e-01  4.5267922755424989e-01  1.2949833639378286e-01  -2.3374626686082485e-02  -6.7604760005598487e-03  2.2685611052372875e-01  -2.8915726122929730e-01  2.5936738018384214e-01  -3.0657826737374230e-02  -3.3645198873816112e-01  8.1934635705700976e-02  1.5883198316683478e-01  2.1598929766334071e-01  4.6160083329863433e-01  -3.1955947374566412e-01  2.5016888133985882e-01  -4.2709237959176483e-01  2.3187060493016975e-01  8.7999396580755077e-02  2.7094116661010254e-01  4.2582356348882278e-01  -7.5483651190841783e-01  7.9798625597207823e-02  1.3907775931160171e-01  -3.5376028128022763e-01  6.9605286494713281e-01  -4.1566154223316565e-01  2.4113833577869984e-01  3.1369379361639083e-01  -8.5805467878872776e-02  3.2172069829752070e-02  9.4942700196841284e-03  -1.8919770498713548e-01  -1.3825553319880954e+00  6.9661824073688705e-01  8.9923589099298351e-01  7.4423946299004873e-01  -2.6854501000941733e-01  -3.7432176352134133e-01  -3.8084109139759792e-01  -1.1134012502837332e+00  -1.0216222034543202e-02  4.8550116511630642e-01  7.2533400796505354e-01  -2.4712042156908864e-02  -1.1689863235853808e-01  -5.5429870836286133e-01  1.1231281613465394e+00  2.6459454678761835e-01  2.7648579970319076e-01  -1.9557316248643120e+00  -1.7555630516966902e-01  -3.3739119276592006e-01  -4.6978170460263108e-01  7.1097473264238165e-01  5.8574500797181954e-02  -3.6886710855576388e-01  -3.5532643931450495e-03  -4.1123765735031298e-01  -4.1177832668268627e-01  -1.6032319009449545e+00  -1.2305910170544217e-01  2.5650269967564160e-01  3.4122692987127090e-01  1.4599736264582097e-01  -4.3627207191136447e-01  -2.1336200182105221e+00  -9.3896086613339244e-02  4.8919632778151029e-01  5.4896924748838512e-02  -8.4509323232566513e-01  3.7244023650501418e-02  2.6229593049361127e-01  3.9682085749655133e-01  -3.7403671305472930e-01  -7.4869967199732185e-02  6.9364222666583553e-01  6.9576653567396352e-01  3.4363353751768022e-01  -2.8500806375985694e-02  -1.2646222798900481e-01  2.0612172518359703e-01  -4.7419251055895817e-01  -1.8467536701381351e-01  -7.9856980608056727e-01  -4.1515001506025062e-01  1.2533663527298853e-02  1.3178978875193342e-01  -5.6415227744206242e-01  -2.9959508493668086e-01  -1.0058965748647006e+00  -3.5054566841572271e-01  3.1458758007331983e-01  1.5445536593279310e-01  -6.3010921957700627e-01  -2.2568479452176174e-01  -2.0731857233392287e-01  -1.7097815944896302e+00  -6.8114075557203579e-01  7.7760478769481101e-01  -6.6949242638280182e-01  1.6254913700123400e-02  -4.7192885268438806e-01  3.0053025449749543e-01  -1.2892184587170305e-01  -2.6430889558469195e-01  -1.2655988644632308e+00  -1.1384851009864729e+00  -2.8521015355448870e-01  -1.6057785404565933e-01  1.6492452088190421e-02  -3.1962359994367406e-01  -7.6756719121834982e-01  -3.1338174048005157e-01  -2.8416991566638489e-01  6.2366592153857847e-01  -4.1097435046785341e-01  -4.1600975921146077e-01  -2.5516346108843641e-01  8.4001579904066564e-02  -1.2907150382103487e+00  9.8204883128647114e-02  3.1662846120958665e-01  4.5956734812341776e-02  3.2215092239547671e-01  -4.9922433542880540e-01  -1.6848791484045542e-01  -1.2306824410058755e-01  1.0582045911290110e+00  -7.0231929664079401e-02  -1.2077901696460111e-01  -3.6146267022500211e-01  -1.1309251832770371e+00  -5.0488893472305223e-02  6.9973049881473826e-01  -3.1182245216241883e-02  -3.3157870415450996e-01  2.8512750474518822e-01  -4.9355773147597530e-02  2.5643241982107434e-01  6.6070948022187187e-02  2.9407577619313491e-01  -8.7234249219177873e-01  7.5131725519742631e-01  -1.2712721694217932e-01  -1.7757483242203706e-01  -4.0968910072293357e-01  -4.6619968122135702e-01  -2.1433593463202394e+00  -1.5776851537784020e-01  -2.2045619908414495e-02  -1.6241972781836816e-01  3.1377768968577130e-01  -1.0455680311467082e+00  3.9643427178455137e-01  2.2603946938107131e-01  -7.0516401577530174e-01  -5.4769455725077398e-01  -4.8567231142743195e-01  -6.6576208068785636e-01  -2.5710953506405115e-01  7.0396915122628434e-01  1.7922264235164517e-01  1.7109556411295029e-01  -2.3781199274973081e-01  6.4332027555532856e-01  -5.3220555761582522e-01  -8.9462230659216213e-01  3.3286329241048479e-01  2.8185082894414570e-01  -4.5655294175989830e-01  7.1086101045273642e-01  -3.8000355094630595e-01  2.4431683571046806e-01  -6.8425884007818893e-01  9.8431567980586077e-01  -6.7914945341702526e-01  -5.0002011356593601e-01  -3.5793975502376046e-01  -3.9558609436133341e-01  -2.1850659420146890e-01  7.5663059154784884e-01  6.4334825470195400e-01  2.2266002542957641e-01  3.2263067163729825e-01  -3.2356266082081098e-01  -2.4544758342463321e-01  -6.9142195515849825e-02  -6.0250510369633148e-01  -7.5677980558281921e-01  5.5720021103470596e-01  -7.9792455853713240e-01  7.2994881588019001e-01  -1.3883203770164934e-01  7.4892037918927190e-01  -3.9546505673889099e-01  -5.5774464140826052e-01  2.2807836483354840e-01  -8.2187098129579694e-01  -2.3639771027610321e-01  -4.0267904994997555e-01  -9.4091678506903961e-03  -3.6278763637852934e-01  -5.2100925626364147e-01  0.0000000000000000e+00  0.0000000000000000e+00  7.0823756166149532e-01  7.1960314464778363e-01  7.3164641259917862e-01  0.0000000000000000e+00  0.0000000000000000e+00  2.7417036971547537e-01  1.4198183543715948e-01  2.0981963037291163e-01  -1.5541177824760517e+00  -1.1462235914525196e+00  5.9482599838864572e-02  6.9321187964994568e-01  -2.3654226369847955e-01  6.5464393648057861e-01  2.1850695608960596e-01  -1.0723383327905052e+00  3.1366696830559698e-01  1.7682040682100728e-01  -7.5434994247332776e-01  -5.3286661441959726e-01  3.2335313567230178e-01  -8.2842142871624180e-01  -3.3324693302408465e-01  -1.2330106701672916e+00  1.2119918273743037e-01  2.6419719259341579e-01  7.0400522324635517e-01  5.2258817398073565e-01  6.7077104850711222e-02  -2.3921926235746382e-01  -1.0988887657160613e+00  -5.3635618575642219e-01  -6.5755756453643055e-01  -2.8610157559425275e-01  -1.8625609779060201e-01  -1.1933929440304869e+00  -5.5391820071224784e-01  2.0663261500832095e-01  3.5181332805427634e-01  3.4205321742729450e-01  3.0077953667075363e-01  -6.6500276903900424e-01  -2.2557135647312426e-01  -4.7779047491095816e-01  -6.3765449421793796e-01  -1.6859205835629658e+00  -1.5514736628577555e-01  -1.4398846390717011e+00  -2.6441612091478084e-01  -3.8695161317724841e-01  -3.0807763135228000e-01  -5.6016229530630968e-01  -3.3193935953146403e-01  -1.2300761377000113e+00  -1.6394968080920436e+00  -9.4598633211721339e-01  -3.3345753664065314e-01  -5.3062563806553154e-01  -1.3428921304968713e-01  -7.8491806467923519e-01  -4.1653406440976648e-01  -2.0035896963910901e-01  -3.6465852936134796e-01  1.2846839861270454e-01  4.0640911500980946e-02  -4.9403885975491599e-02  -3.4570743593139680e-01  -3.8731724054950167e-01  -4.8155375218903856e-01  -8.8628593928789334e-01  5.3169599624779262e-01  2.7088540543750506e-01  -4.5246304917917490e-01  2.1878025012092561e-01  3.0300859108424366e-01  -7.2307545123398020e-01  9.3043882638902564e-02  4.6673923610232709e-01  -4.6557317329631814e-01  -1.5744320640808737e-01  6.9858201897252858e-01  3.3868327362092158e-03  6.7229143794043961e-02  2.5043810824198726e-01  -2.3207455858552148e-01  3.5361369407854887e-01  7.9569520686404160e-02  -3.5930927925521476e-03  7.7462112578431677e-02  6.5080269596624507e-01  -2.1120502965412596e-01  -1.9013717085404863e-01  2.3381390931173199e-01  6.9879526683337717e-02  -1.7432308464963714e-01  -5.0096638437129259e-01  3.1496097356571412e-01  -3.3365481635964622e-01  -4.2696648358451583e-01  1.4134912370309050e-01  2.1172302696410905e-01  -4.0762888225751981e-01  -5.4959056832516034e-02  3.5352274421801672e-01  -4.2151736140246795e-02  -2.8132378799976937e-01  3.5839778236495151e-01  2.6469199206618810e-01  3.7046922314587470e-02  -4.7596935876850416e-01  4.8868409477004565e-01  -2.9970562304283001e-02  -8.0112499185179792e-02  1.7896616067152413e-01  -1.9622518854398149e-01  2.0861510094853811e-01  5.4703049034758855e-01  -2.2202814746301847e-01  6.6845405559076865e-01  -2.7815958782010097e-02  2.7560792732516470e-01  -4.1645136297388485e-01  -2.7082225802766768e-01  -5.4686540514638948e-02  2.4094842888230522e-01  1.2758528873682029e-01  -2.3918646027016110e-02  1.6980007221077290e-01  3.2702825244773220e-01  8.0493371440032629e-02  1.9672689426080650e-01  2.1568198227259739e-02  -3.6569970630667920e-01  -2.3856661527574430e-01  -5.8142568381013238e-01  -1.4248636534948023e-01  -9.2187776193665616e-01  1.5982478710177253e-01  -5.4499151305369953e-01  -5.7583494448427452e-01  -8.6650754150559173e-01  -2.8969772475135286e-01  -1.1905508593981902e+00  7.3947716351022860e-02  2.5165007304873654e-01  -4.9911168264480732e-01  -5.9261859773648573e-01  1.8271930278377235e-01  2.7061321741510880e-01  2.1223480139150510e-02  1.5217261599302414e-02  2.7212244940377195e-01  5.8576702824219172e-03  -5.0445918314221294e-01  -6.3768492623061568e-01  -7.9591906561386414e-02  -7.2320967193008445e-01  6.7815413304260511e-02  -6.0385611563351316e-01  2.4601851126521629e-01  -1.2240431061587382e+00  -2.8490011626513079e-01  3.2285819116456610e-01  -4.9034810220695751e-01  -2.0402967819662261e+00  -1.0121470184828565e+00  8.1306574620156960e-02  -1.4969183346499411e+00  -1.1416302634786653e-01  -2.5837168464086013e-01  1.3547793810406858e-01  -2.0073296790509382e-01  -1.9422521254883416e+00  6.9282100855670248e-01  5.0244899963663392e-01  1.2490718222232154e-01  -3.3199622945262469e-01  -4.2551313570058991e-01  -1.4591270486455715e-01  1.4842625686969566e-01  7.3663861652463025e-01  7.2819875673010104e-01  7.6792319967723810e-01  -9.7056549343218290e-01  2.2509577986903548e-01  -4.8035510070245946e-01  8.4950793382062695e-01  7.8923365053991223e-01  8.4506864200141762e-01  -5.3166783047548183e-01  -5.4023792338451282e-01  3.0284656670791971e-01  -4.8072701349290176e-01  -2.8811689199534762e-01  2.7940100568139231e-01  1.3124521986808127e-01  9.7478958721292042e-01  9.0332822710436833e-01  3.3886783848911711e-01  -7.8161220945394760e-01  -6.4452329857576307e-01  -2.7429290516068472e-01  -2.1587628158779406e+00  -8.9078234270738438e-02  -2.0522036298073826e-01  -3.2252974316377347e-01  -2.7809468543520877e-01  -1.6335785565174541e-02  -4.0289533676677547e-01  1.1706009440797009e-01  -6.3857576659678417e-01  -5.1476303185213268e-01  1.4154114032029346e+00  -1.4597979357817401e-01  1.8029625926055443e-01  -1.5651779637401628e-01  7.0810898653290566e-01  7.1015163552383465e-01  7.4481513655926757e-01  1.2478970128647346e-01  -2.3665167412322832e-01  2.2654006490048498e-01  -4.3169366698915956e-01  7.0189056631387170e-01  -3.5376358299533683e-01  -2.2056849607815726e-01  2.0546875467187772e-01  -1.1661344430838737e-01  -6.9536994601941715e-01  -1.1256884003560591e-02  9.1774206459141672e-01  -2.7747424207300830e-01  7.5174975177280789e-01  -1.2078102583337682e+00  -7.3291160249592380e-01  -3.7412893701043110e-01  1.5980133201863025e-01  -1.0994507179742539e+00  1.2616346667779349e-01  -6.9325166507262531e-02  6.5798432391020645e-01  7.3293320669312056e-01  4.4269033917592449e-01  -6.1699097262100189e-01  -1.3871134541290256e-01  1.0068966413857081e-01  1.0142827700358867e-01  -1.4400019340243292e-01  -2.0899230635099603e-01  -3.5501041085507712e-01  -8.0468507227419817e-01  6.9335351610753138e-01  3.5554220832691837e-02  3.8936505235641916e-01  1.3340720472129819e-01  -5.6292255490133225e-01  -8.4874180322478388e-01  -3.4877337134054703e-01  7.0520569948558287e-01  6.5105323326461698e-02  1.0495009502895329e+00  -5.0124031887686582e-01  -3.4779235978724321e-01  1.2259600918256988e-01  2.0907448125171878e-02  -1.3859430044899340e-01  4.5267410521039481e-01  -1.1783682555665874e-01  8.2582994683557134e-02  -1.7661210208137051e-01  -5.1205924824097970e-02  1.3198214547462347e-01  5.1368396649376868e-01  7.0126772129609372e-01  7.1306574373403830e-01  -1.5924084519441578e-02  3.4812817569672694e-01  -1.6867452353157270e-01  1.0791667193955826e-01  6.9377845475223388e-01  2.5577624224247841e-01  7.0643445174326625e-01  1.2449232506387320e-02  -1.5404887009199339e-01  -3.5694239359850882e-01  1.8457288578930570e-01  6.9708257251341676e-01  -1.0023184953965944e-01  -2.5516146400881129e-01  -1.1194826569404966e-01  3.0431125887630239e-01  -3.7463288885935603e-01  2.9345631009465761e-01  2.8871344982350461e-01  7.1486043367401975e-01  1.9609497196720446e-01  -1.1515244502893438e+00  2.9547122915322577e-01  -1.1818745955894436e-01  6.2489788826419090e-01  -2.6566016514279839e-01  -2.3530377546731029e-01  2.9782460953344375e-01  -5.7724522259039257e-01  -1.3638263213704231e+00  6.5852700080033466e-01  -2.9901891597336749e-01  -2.6133967071063052e-01  -3.2636146891453838e-01  -9.2409117086676096e-01  2.0533030223827251e-01  -1.8046209570666352e-02  6.0220870670735882e-01  9.3039878674004639e-01  2.3472582283942342e-01  -8.4852797476948494e-01  -1.4346583944845626e+00  -1.5588439112209757e-01  -1.1615352505028429e+00  -6.4948491412984910e-01  2.3007247453842705e-01  -7.7226004110318314e-01  -1.6400708522245892e-02  -6.1411180948466448e-01  -9.9629156025272259e-01  1.8407925337164291e-01  4.3259874161218437e-01  -3.2996974343239643e-01  -3.7905205373702811e-01  -8.9414340173011286e-01  -5.0145604091380558e-01  -2.0378320337738934e-01  7.2422495718369048e-02  2.2483798329982794e-02  -3.8364837189862150e-01  7.3271268231133002e-02  3.6353808983117170e-01  -1.8224952355029572e-01  -1.5186631210271970e+00  -2.1632631585855937e+00  4.8690948937064688e-01  5.2364464367698815e-01  1.7444541004733274e-01  7.9346983394676318e-01  -1.1723972213401563e+00  -3.6067488052538971e-01  -2.6038179827881780e-01  -4.3442852430567475e-01  -8.0160202458360974e-01  -1.3023050989929605e+00  -3.3528197236059659e-01  -1.8738205094545277e-01  -3.3173739718719397e-01  -1.2582369952785039e-01  -5.1058585327942041e-01  2.7658661747962082e-01  2.2395473807982047e-01  7.9595780289790932e-02  -2.2190632195497986e-01  -1.2164075817988246e-01  -3.1463628160669399e-01  -3.4733281638693614e-01  -2.9510621433175770e-02  2.2389057123983150e-01  -1.2171484350245720e+00  5.8286541248055768e-02  -4.9935723352697642e-01  1.6261275774134727e-02  -3.4293263978384281e-01  -3.5202921327456571e-01  -3.5862960385362241e-01  -1.7634701542286277e-01  -2.8472875089095889e-01  -1.1033362471190606e+00  -3.1284942583717251e-01  -5.6614657018780978e-01  2.3213911958219219e-01  -4.3548619708978503e-01  -1.4802259918515215e-01  -5.7066769316778487e-01  -3.6021477433279997e-01  2.9186332476292409e-01  2.9671616685937252e-01  3.0589924834975246e-01  -4.2837654393304891e-01  -6.2643183897214350e-01  2.3905093134746661e-01  -1.0062069441855666e-01  -3.3943724081511550e-01  4.1852907841868339e-03  -1.0869650383883066e-01  5.8380365907519516e-01  -5.7865529034006646e-01  1.3311589956040923e+00  -1.2400634402236308e+00  -1.3898516466431432e+00  1.5224047200841034e-01  -1.3784916109730518e+00  -8.1752945852617764e-01  -3.7393816257975143e-01  1.1008937896149191e+00  -1.2171167852362128e+00  1.3149335974047922e+00  -4.0994594006720136e-01  -3.8603624953738130e-01  -7.0064115827336215e-01  -4.2868560826876051e-01  1.6101876442970851e+00  -1.4151606723124071e+00  -1.2041380545205352e-01  -1.4228965687458348e+00  2.1223302665372670e-01  -1.0870880882473408e+00  -5.1572456651014409e-01  -8.7355326797116106e-01  7.0004500731775565e-01  -1.3390642083898552e+00  -1.4597749626465635e+00  1.6043907361970697e+00  9.6515878295894875e-01  -1.0083759176192824e+00  -1.2173405023160138e+00  -1.0840572877454537e+00  -7.8973297844215584e-01  -9.7865748067215819e-01  -6.3903894032853170e-01  -6.6718964628679467e-01  -8.7159159263463548e-01  -5.2931387503147531e-01  -6.0355188582729602e-01  -4.8139815909122063e-01  -4.6132301769048589e-01  -4.5943441132397556e-01  -4.0510867460221794e-01  -4.4780508661994117e-01  -3.7633475199067323e-01  -3.8503891780569727e-01  -4.3672160132251225e-01  -4.0588480770231367e-01  -3.9428996743439426e-01  -4.0583742329445188e-01  -4.4811328691156482e-01  -4.1931635257270250e-01  -5.4451783192414915e-01  -4.4315630355324998e-01  -5.6510294043681764e-01  -7.1566685418538001e-01  -6.3103933957191560e-01  -9.0996306773752189e-01  -7.0109578265035088e-01  -1.0261462155104271e+00  -7.6374167881507327e-01  -7.7417097014