<?xml version="1.0"?>
<VTKFile type="UnstructuredGrid"  version="0.1"  >
<UnstructuredGrid>
<Piece  NumberOfPoints="4269" NumberOfCells="8234">
<Points>
<DataArray  type="Float64"  NumberOfComponents="3"  format="ascii">0 1 0  0 0 0  7.5 0 0  7.5 1 0  1.197537668119028 0.5812868930080463 0  1.2 0.55 0  1.197537668119028 0.5187131069919538 0  1.190211303259031 0.4881966011250105 0  1.178201304837674 0.4592019000520907 0  1.161803398874989 0.4324429495415054 0  1.141421356237309 0.4085786437626905 0  1.117557050458495 0.3881966011250105 0  1.090798099947909 0.3717986951623264 0  1.06180339887499 0.3597886967409693 0  1.031286893008046 0.3524623318809725 0  1 0.35 0  0.9687131069919538 0.3524623318809725 0  0.9381966011250105 0.3597886967409694 0  0.9092019000520906 0.3717986951623264 0  0.8824429495415054 0.3881966011250105 0  0.8585786437626904 0.4085786437626905 0  0.8381966011250105 0.4324429495415054 0  0.8217986951623264 0.4592019000520907 0  0.8097886967409692 0.4881966011250107 0  0.8024623318809725 0.5187131069919539 0  0.8 0.55 0  0.8024623318809725 0.5812868930080463 0  0.8097886967409693 0.6118033988749896 0  0.8217986951623264 0.6407980999479095 0  0.8381966011250105 0.6675570504584947 0  0.8585786437626906 0.6914213562373096 0  0.8824429495415054 0.7118033988749896 0  0.9092019000520907 0.7282013048376736 0  0.9381966011250106 0.7402113032590307 0  0.9687131069919539 0.7475376681190276 0  1 0.75 0  1.031286893008046 0.7475376681190276 0  1.06180339887499 0.7402113032590307 0  1.090798099947909 0.7282013048376736 0  1.117557050458495 0.7118033988749896 0  1.141421356237309 0.6914213562373095 0  1.161803398874989 0.6675570504584947 0  1.178201304837674 0.6407980999479094 0  1.190211303259031 0.6118033988749896 0  3.75 0 0  3.75 1 0  1.875 0 0  1.875 1 0  0.9375 0 0  0.9375 1 0  1.40625 1 0  5.625 1 0  5.625 0 0  2.8125 1 0  2.8125 0 0  4.6875 0 0  4.6875 1 0  6.5625 0 0  6.5625 1 0  5.15625 0.5 0  4.21875 0.5 0  2.34375 0.5 0  3.28125 0.5 0  6.09375 0.5 0  7.5 0.5 0  6.897916666666666 0.5 0  1.842708333333333 0.5 0  0 0.5 0  0.46875 0 0  5.625 0.5302734375 0  7.03125 0 0  6.09375 1 0  2.8125 0.4697265625 0  3.28125 0 0  2.34375 1 0  2.34375 0 0  3.75 0.4697265625 0  4.21875 0 0  4.21875 1 0  4.6875 0.5302734375 0  3.28125 1 0  5.15625 0 0  6.09375 0 0  5.15625 1 0  0.46875 1 0  1.40625 0 0  7.03125 1 0  0.3954638734376499 0.5975780249976004 0  6.495833333333334 0.4072265624999998 0  5.859375 0.25 0  4.905729166666666 0.26513671875 0  4.453125 0.25 0  3.531770833333333 0.73486328125 0  3.968229166666667 0.73486328125 0  2.594270833333333 0.73486328125 0  3.030729166666667 0.73486328125 0  6.328125 0.75 0  7.198958333333334 0.3125000000000002 0  7.198958333333334 0.6874999999999998 0  5.390625 0.25 0  0 0.25 0  2.109375 0.75 0  2.109375 0.25 0  1.51921323205749 0.3418883887525936 0  1.522346610178253 0.6811769608297746 0  5.375456746419271 0.75 0  4.921875 0.76513671875 0  4.437956746419271 0.75 0  3.984375 0.23486328125 0  3.500456746419271 0.25 0  2.578125 0.23486328125 0  3.046875 0.23486328125 0  5.874543253580729 0.75 0  6.642123189445656 0.6909095493086836 0  6.746354166666666 0.2391688368055553 0  0.3197109619185111 0.2850049285972083 0  6.328125 0 0  0.6313375889370429 0.2351325552547357 0  0 0.75 0  6.252283381534729 0.2693808819694041 0  0.234375 1 0  6.948437500000001 0.7543055555555555 0  0.5934018769555939 0.7694151657947577 0  1.858854166666667 0.75 0  1.858854166666667 0.25 0  1.640625 0 0  2.093229166666667 0.5 0  7.5 0.25 0  3.282227579752604 0.75 0  7.5 0.75 0  1.171875 0 0  1.303539853147731 0.2235426933121065 0  5.148177083333333 0.2575683593749998 0  2.351822916666667 0.742431640625 0  1.640625 1 0  4.202380413457425 0.7645435094236485 0  3.047822985053062 0.4701848030090332 0  2.577177014946938 0.4701848030090332 0  4.672792740482199 0.76513671875 0  4.922822985053062 0.5298151969909668 0  5.390593497949761 0.5156244924311331 0  5.610292740482199 0.76513671875 0  3.516602579752604 0.5 0  4.45496853898097 0.4865915990446593 0  5.85753146101903 0.4865915990446593 0  3.749511210123698 0.23486328125 0  3.983397420247396 0.4999999999999999 0  2.343497975411212 0.2346270081980111 0  4.219002024588788 0.2346270081980111 0  0.703125 0 0  2.8125 0.2343755075688669 0  3.046875 0 0  2.578125 0 0  3.515625 0 0  3.984375 0 0  4.453125 1 0  5.390625 1 0  2.109375 0 0  2.109375 1 0  5.625 0.2921402030705575 0  5.390625 0 0  7.265625 0 0  6.796875 0 0  6.328125 1 0  3.046875 1 0  2.578125 1 0  3.984375 1 0  3.515625 1 0  4.453125 0 0  4.921875 0 0  5.859375 0 0  0.703125 1 0  1.171875 1 0  7.265625 1 0  4.921875 1 0  5.859375 1 0  0.234375 0 0  6.796875 1 0  6.980310975276531 0.2285890127127066 0  5.149170481934885 0.772689292163473 0  3.274170481934884 0.2273107078365268 0  6.101334126790364 0.7722468376159667 0  4.678005340872584 0.3000799877067239 0  2.8125 0.6921051326382495 0  3.75 0.6921051326382495 0  0.3515624999999999 0.8134571721668546 0  0.4990405774417521 0.4070099317153735 0  0.1789273931360182 0.625 0  6.31239060814315 0.5298877111157968 0  6.456979773992304 0.1917956348713352 0  6.699870808919271 0.4406293402777773 0  1.337539480965883 0.7944303676599538 0  6.058675797563041 0.2019812164653516 0  0.8203125 0.1643029084422534 0  0.1480856513011711 0.375 0  1.090769294689562 0.1719186776982972 0  7.291088163206459 0.5 0  7.094502414936563 0.5197902199074071 0  0.6046212059042245 0.5730066483871106 0  1.707231580809486 0.6342709161352207 0  1.685961352504593 0.8193269193390785 0  1.374721602852827 0.4600373025865813 0  6.486415510043844 0.5916440776477192 0  1.5234375 0.1508863828685116 0  1.707925830421689 0.3657739208189008 0  0.1674513225045584 0.8278776664019765 0  7.138268756771176 0.1438183366439137 0  7.1484375 0.8616388888888887 0  7.328562530764119 0.819498462930605 0  4.101073710123698 0.3678637200736647 0  1.693878467219965 0.1911955120941053 0  1.577566745468488 0.5110082404081502 0  6.6796875 0.8653871806883484 0  6.498039504430512 0.825568433346395 0  0.7562556668576472 0.8333197949571929 0  4.101045914668806 0.6255195807449272 0  5.030745188395182 0.382829047309028 0  2.476364945868651 0.6095868094762166 0  2.729359843907322 0.8460525663191247 0  2.9296875 0.8740763101564099 0  3.163518307559356 0.6254622797994247 0  3.666859843907322 0.8460525663191247 0  3.8671875 0.8740763101564099 0  4.8046875 0.12592368984359 0  3.14936031382311 0.8606990583876851 0  2.4609375 0.8747622921397776 0  5.023140791101972 0.1392266772452574 0  0 0.125 0  0.1759922923594607 0.1727589856739889 0  4.5703125 0.125 0  7.327755777818006 0.1766156770456191 0  5.5078125 0.125 0  5.719712725029036 0.1460701015352787 0  4.327848962028002 0.3674169956512513 0  5.982681121544351 0.3692637923021713 0  3.398926289876302 0.6245417594909667 0  5.281756792511996 0.3827993367299961 0  2.226822645963271 0.6252438868405666 0  2.234390064317166 0.8676616584526566 0  5.2734375 0.125 0  1.96796875 0.382568359375 0  2.234651037971999 0.3674169956512511 0  1.984114583333333 0.132568359375 0  1.9921875 0.875 0  1.984114583333333 0.632568359375 0  5.748733794462357 0.8678269127183313 0  3.3984375 0.875456329184688 0  1.512925924995415 0.8582958012121853 0  1.359299372802969 0.6275861864990343 0  4.810521420483513 0.4041767793635395 0  0.2996213306116602 0.455339710363317 0  5.999933717403708 0.6388425470751088 0  5.250033449003657 0.6388713364551682 0  3.631676045992918 0.3525406652400928 0  4.3359375 0.8816499670325881 0  4.343577437052484 0.6116511299909198 0  3.375033449003656 0.3611286635448316 0  5.763152151652243 0.6249404690537395 0  4.549347848347757 0.6249404690537396 0  5.5004588702411 0.6403667365776566 0  5.976118394847484 0.8816230218343086 0  5.054722486865804 0.6338007028640954 0  3.164542163493752 0.3520519332736524 0  2.445407482032355 0.3672168403687257 0  4.8046875 0.882568359375 0  4.1015625 0.117431640625 0  2.4609375 0.117431640625 0  2.695556894938151 0.3520510350344335 0  2.929443105061849 0.3520510350344335 0  3.881979231817319 0.3670559016511187 0  3.8671875 0.117431640625 0  4.805389247695744 0.6470047893641744 0  3.399370721942191 0.1184066543556767 0  5.274370721942192 0.881593345644323 0  3.618253274934649 0.1316869186284249 0  2.6953125 0.1171877537844335 0  2.9296875 0.1171877537844335 0  2.21873344389451 0.125 0  4.3359375 0.1171877625080073 0  0.6659898565672709 0.3986593551313873 0  7.363359022954956 0.3481046411219251 0  7.363359022954956 0.6518953588780749 0  5.487719392831826 0.3828237631077121 0  2.695054578344725 0.5809158475691247 0  2.944553877887707 0.5964065668438148 0  0.3515625 0.1201898858097106 0  5.5078125 1 0  4.5703125 1 0  5.031746201297604 0.882568359375 0  3.1640625 0 0  6.2109375 1 0  6.186845385763124 0.6336356480571081 0  4.1015625 1 0  6.810399074069772 0.6495574751396682 0  0.4740615253480797 0.2509287743856873 0  7.052064303830151 0.3684417917792242 0  6.195177069665382 0.1216488332168849 0  5.72300154718324 0.4112068202852788 0  3.879157465495092 0.6111892850691246 0  3.645760045247695 0.5809158475691247 0  6.868257400485771 0.3427840810237202 0  6.612030892260864 0.1521752713064389 0  6.615666885941117 0.3151079644097221 0  4.04296875 0.8633718902669071 0  1.183031453639096 0.8486801864185936 0  6.9140625 0 0  6.859079526500421 0.1398292786950638 0  6.808232443325651 0.7957411753922057 0  6.9140625 1 0  4.544955211100143 0.3675874343205077 0  1.0546875 1 0  6.122060236165557 0.3316791557072867 0  0.5859375 0 0  5.9765625 0 0  5.44921875 0.870984788733638 0  4.51171875 0.870984788733638 0  0.7608354256382215 0.2931261274224557 0  6.386875332239937 0.3156583003094978 0  6.985654756850997 0.6147408423643147 0  6.223797257919172 0.8535621912121121 0  5.936822413218736 0.1338376546337823 0  6.23933008800134 0.4095573603773768 0  0.5414022462152697 0.1305482677949959 0  6.331360438104348 0.1370086318183389 0  0.956404929269873 0.1374266563647954 0  1.2890625 1 0  0.691305981127761 0.6764829884281737 0  3.531251607241209 0.8678916320952239 0  2.59787442813022 
[...]
<PointData  Scalars="f_71633"> 
<DataArray  type="Float64"  Name="f_71633"  format="ascii">7.5425914089265500e-01  7.0678360005486696e-01  0.0000000000000000e+00  0.0000000000000000e+00  6.8873304482915909e-01  7.3576192514444527e-01  6.7697212862173450e-01  5.1993552035009660e-01  2.7661452939362929e-01  -2.8171510440559523e-02  -3.6070326117825269e-01  -7.0218171806309371e-01  -1.0103919009468569e+00  -1.2524726102664760e+00  -1.4071625957274152e+00  -1.4518718541494087e+00  -1.3612026077684025e+00  -1.1533934021467265e+00  -8.0629422250276062e-01  -4.0345340754128040e-01  4.3442387768604596e-02  4.8464384892564949e-01  8.6474786049226759e-01  1.1797953863546391e+00  1.3823927323259280e+00  1.4597599194413708e+00  1.4026324649805051e+00  1.2203907487270858e+00  9.1523836771669409e-01  5.3751695523808607e-01  8.6089200005815797e-02  -3.9179209898305040e-01  -8.2875278012363107e-01  -1.1926442271039945e+00  -1.4763363070115296e+00  -1.5473602264951052e+00  -1.5248195726242169e+00  -1.3535333552877762e+00  -1.0839576429964197e+00  -7.3125240356909904e-01  -3.7316442523441484e-01  -1.5050737745352660e-02  2.9669313459100977e-01  5.3898995527239490e-01  1.2406308045518727e-01  2.4261056900647821e-01  5.3710664814458475e-01  4.6375967551318226e-01  1.3690262508715306e-01  1.6273626211252368e-01  4.0308237259403551e-01  3.3441962817935295e-01  7.7956326412718881e-04  3.9453820439098086e-01  3.4612594552805509e-01  9.6483288615220819e-02  3.3250149077116159e-01  1.7979474629327802e-01  1.6323199032036395e-01  1.6370688296187799e-01  2.2636906974641613e-01  4.0363253555147793e-01  3.0664853744343495e-01  9.5949148563669429e-02  0.0000000000000000e+00  4.4378126830727151e-02  4.5663796590279537e-01  8.6108718953480878e-01  6.9102722626610691e-01  1.2916108185595351e-01  8.7501044157920538e-02  2.1194039582788601e-01  3.5281011777524535e-01  3.2923533238899916e-01  3.9162127541427499e-01  4.3135110496215179e-01  2.6040761353624925e-01  2.9425267720782011e-01  2.9051329689743027e-01  1.9345666750551554e-01  2.8175036866406988e-01  7.3848135424565350e-02  1.4210248990450972e-01  2.4024688124916346e-01  9.4386164416785134e-01  2.2618720362139330e-01  -1.1362748115859209e-01  9.9123396804148378e-01  6.4859249837183552e-02  1.1581355025474498e-01  1.8324391962544795e-01  2.0371562692588266e-01  2.7928664148939730e-01  2.3685164316319501e-01  3.7829884787196255e-01  3.3206802719610229e-01  7.4430298395813443e-02  1.3005143954894337e-02  1.4561569849055626e-02  1.4368705850792321e-01  6.7208138213048541e-01  4.2593162202204227e-01  4.2577272254169374e-01  4.8503809511180884e-01  5.1686610404061095e-01  1.5064146058322000e-01  1.7759345642659793e-01  2.0858019849637102e-01  2.3970639318040404e-01  2.8886550432891572e-01  3.8025223981480272e-01  3.2610395158241562e-01  1.1331273428013154e-01  5.0631062719035586e-02  3.9589904739381038e-02  8.4139402017017428e-01  2.0197105878894583e-01  7.6188592154777546e-01  7.0352673015492428e-01  9.2369410357743056e-02  8.9635211342664145e-01  3.2646534937315182e-02  9.0969380116210741e-01  4.5242087804518200e-01  4.4227712170643707e-01  4.3025918367973792e-01  4.2836468316104276e-01  0.0000000000000000e+00  3.1206605516033625e-01  0.0000000000000000e+00  1.2756393632981530e-01  3.3008835692035704e-01  1.6045935794921501e-01  4.0312915157157664e-01  3.5840995314937996e-01  2.1173890647116317e-01  3.2875456395630059e-01  3.7870958457694776e-01  1.8974882858588496e-01  1.7986621301441613e-01  1.4587104799034570e-01  1.2798872006388157e-01  2.8113559774775165e-01  2.0784612261245236e-01  1.1195008373883993e-01  2.5839752962984547e-01  2.4148180359615418e-01  4.0831173448956454e-01  2.2923438660416834e-01  4.8541723053073338e-01  3.5338185252640336e-01  2.6339106541082402e-01  3.3944439315191605e-01  3.9940700170129828e-01  2.5425263249035895e-01  3.0858731342580392e-01  1.6009103186572959e-01  4.7764904751002352e-01  4.3788059081503972e-01  1.2567163819353475e-01  5.6819949875836752e-02  -1.5786369809227174e-01  1.1697427256040788e-01  -4.7950653562558974e-02  3.5220762019514174e-01  3.6834807729295344e-01  1.5869093479259980e-01  3.8199723228674376e-01  2.1049676541162007e-01  6.8055977841556120e-02  -4.6919397600691311e-02  7.6423586972730828e-01  1.0387782841739901e-01  -1.6740987056118228e-01  3.0463668860438103e-01  1.4940342267903914e-01  8.2673237253768705e-01  -4.6733226812962020e-02  5.0083050081899706e-02  1.8348178899860659e-01  3.0119327595657069e-01  9.7957369020787236e-02  1.9547545969539845e-01  3.5384339912581225e-01  2.5844175393183738e-01  9.4716621198515283e-01  9.3846142441732083e-01  8.9371937466434859e-01  7.9447365461710509e-02  8.9828083875416118e-02  4.9662142399544480e-02  4.2311883325593408e-01  9.5607214550098532e-02  3.8341292940266514e-01  8.1593997951671859e-01  2.0024517791128692e-02  -4.9100798711750569e-03  3.3676239931930918e-02  1.0978632498673999e+00  4.7925565925913854e-01  4.6448418829662319e-01  6.0702203997891391e-01  6.2445917724538502e-02  4.1503711747933686e-01  4.6616980061378566e-01  8.8637465943190452e-01  3.2236151674224132e-02  5.3282148990633042e-02  2.1716283315284166e-02  2.3463283284877001e-01  4.4174655481607056e-01  5.1512092146464150e-01  6.5544742078559995e-02  4.9675956367708725e-02  6.0103274454028688e-01  2.3325603691081101e-01  1.7219390313309862e-01  3.9005166233266253e-01  3.6526647453321542e-01  3.5027773221250841e-01  3.1959798844741566e-01  2.5866556905068494e-01  2.7079373570355336e-01  2.1508723709335234e-01  3.2452141970417597e-01  3.9594706269088520e-01  1.9322238730560326e-01  6.3468724957405442e-01  8.7771914201280066e-01  2.0326492533174201e-01  1.3154114217049111e-02  1.5219842733071720e-01  1.3132227588320489e-01  2.1960020014826126e-01  1.0557821947612032e-01  2.9507683800541545e-01  1.5305101249836581e-01  4.1503336678289587e-01  4.1705229153428697e-01  1.4238916084935693e-01  4.3895984016113160e-01  4.1505850881810913e-01  4.3098140607069035e-01  4.2133225175863470e-01  4.3987722231525528e-01  1.4565307376189110e-01  3.1353060230944840e-01  4.5451471389196119e-01  6.3167026003003945e-01  1.8712152538487903e-01  9.3306513611890796e-01  9.9309112415312734e-02  1.6003566801828709e-01  2.6852226525218736e-01  1.8750828289783594e-01  2.1656640587925330e-01  2.9819331473027655e-01  1.2010567636974447e-01  2.0074012076730949e-01  1.4023739151916051e-01  6.9419436419369013e-02  1.7125998291524411e-01  3.1583719086198742e-01  3.9383132636166435e-01  1.5844822827065946e-01  2.2258574914704382e-01  3.8982330735491005e-01  3.6481418280125727e-01  3.3887355828239568e-01  2.4810596913601199e-01  2.8205204751158036e-01  1.9023277600970070e-01  2.5458538853327295e-01  1.5474017136450380e-01  2.3806086540449009e-01  3.8603391494803835e-01  3.5476483464651193e-01  4.2275700335394545e-01  2.1487333325196320e-01  9.6639637110713072e-01  1.0382591023332222e-02  2.8565206175511309e-03  1.3929558968668140e-01  3.6631199474145126e-01  3.3991189051055998e-01  8.6946221249367928e-01  2.4491644959256785e-02  -5.0966007754540263e-03  1.4566891621058337e-01  3.9246027942291623e-01  1.0842226429002477e-01  8.4587039856163004e-02  1.5610308521056790e-01  4.6763075540360320e-02  8.5078698091373728e-01  3.6864562553121996e-02  7.3836815667438438e-02  1.2076392834212357e-01  2.4363007169158740e-01  2.6712940009819758e-01  4.0690519931913013e-02  1.5341243868543747e-02  5.6271077126425859e-02  2.3331420963558400e-01  3.5708565674845240e-02  -3.2960266686388823e-02  2.7694226666383080e-03  4.8227648666618946e-02  1.2761469647573132e-01  2.0053012067992518e-01  -1.5577359710611346e-01  9.2732509271879149e-02  8.6132568222085970e-01  9.8237040420820820e-02  1.2496067148379575e-01  1.8866540840443399e-01  5.8716012298409692e-01  7.8010099637712549e-02  3.7576790899726598e-02  6.0489642940441977e-02  1.2581764446553090e-01  8.6387796411649009e-02  8.2516820423717296e-01  1.0555655015923671e-01  1.2359356727379810e-01  2.0590329111754943e-01  1.0463102501644648e+00  2.7168441875962673e-01  3.8098300193382995e-01  4.7899225592393890e-01  4.3752320910406545e-01  3.2174477313039962e-01  9.3312254091151348e-01  9.0541036185680712e-01  5.1260399824677882e-01  4.6985926352280366e-01  5.4930576280262926e-02  5.8559674408670541e-02  2.0120811682607856e-01  7.8208835244982053e-04  3.1168909485580567e-02  7.4963377459640723e-01  -2.9384940744950561e-01  9.0978161365483434e-01  3.0379460055770202e-01  9.0959233970344067e-01  1.8658866656688036e-01  2.8125630463331480e-01  4.5509941087763095e-01  4.2752311869322612e-01  4.5216179635371018e-01  4.3404807139374546e-01  4.4143883850163979e-01  4.1614487716434218e-01  3.0008136523640327e-01  0.0000000000000000e+00  0.0000000000000000e+00  7.1925709063292098e-01  7.7423197904281604e-01  8.1804300146916709e-01  0.0000000000000000e+00  0.0000000000000000e+00  8.8643503590446204e-02  3.1426944988994643e-01  1.2947658111807375e-01  5.7085959476611048e-01  4.6912523482123680e-01  5.7315489172638921e-02  8.9284233793530587e-01  3.4218550067856024e-01  6.2322305650889998e-01  8.4825644010479470e-02  1.3027016453049980e-01  2.2006933208989621e-01  4.2720905044913637e-01  1.4938675490368769e-01  1.6474959549282639e-01  4.3853590561639305e-01  4.0252976935705803e-01  1.7527714077729759e-01  3.9118776582136811e-01  4.1471267980083865e-01  4.2283322368119486e-01  9.6921292277873705e-01  7.7518752817691394e-01  1.2025656794801252e-01  1.3269900053235931e-01  1.1248998037702046e-01  1.2904761271878712e-01  1.0368659608160372e-01  2.1639953653996685e-01  1.1429222233005622e-01  2.0030012851326245e-01  4.9717869915578444e-02  2.1522289220591359e-01  2.3523997624053103e-01  2.3042184744640878e-01  3.2132402932221726e-01  1.9261764426757910e-01  3.0860923552589448e-01  2.4865716829487758e-01  2.9604138292244703e-01  2.8393576944429955e-01  2.3276111879208128e-01  3.9159025088055027e-01  3.1735881225104218e-01  1.7137657871137851e-01  1.7952974850289596e-01  3.7847568848857682e-01  3.4039350382015837e-01  1.8778091744471792e-01  1.9174490616691800e-01  1.3482780042214632e-01  1.2856163939047344e-01  1.7828632416163415e-01  1.4701338910627909e-01  1.9854884495919459e-01  3.2739559797950113e-01  1.5504914032567960e-01  2.6107722112490972e-01  1.4689558201964747e-01  2.4660104041954170e-01  2.4649796245974689e-01  1.3883368055468648e-01  4.3143757119010467e-01  2.3614404108498202e-01  4.1721647385830740e-01  4.1959453561449461e-01  3.9639481181886815e-01  2.2451224253315530e-01  2.1304068765762318e-01  1.5277202379300592e-01  3.3649279808821858e-01  3.6916216648301037e-01  3.9344278212453559e-01  2.5546706427283061e-01  3.8672231966457984e-02  9.0235324726029031e-01  2.1856101426161137e-01  3.9589056400807293e-01  3.7265128280557125e-01  3.3440347235169177e-01  3.7023037952053955e-01  1.4421685564073483e-01  2.2898045598964065e-01  3.6343065658346924e-01  4.4667270084229577e-01  1.3746963931010509e-01  4.0809346211937429e-02  1.2350346576879769e-01  2.7977070680512228e-01  3.3710378935704205e-01  2.7085350936357087e-02  3.8666534678095738e-01  3.3582698812961026e-01  1.6108434630988169e-01  4.2361955119985983e-01  2.4439884171788662e-01  1.0209032362473372e-01  2.2120472073967626e-01  2.1787282357504156e-01  2.9737910076760732e-01  4.0946125082663470e-01  3.4933473322677894e-01  2.8204588011181952e-01  3.2974965763762210e-01  1.6209043092760456e-01  2.6324631320277292e-01  3.7667104356792852e-01  1.1798440520349785e-03  1.3361419445234468e-01  4.5490072457129865e-01  2.4189671418292005e-01  5.1719775514218125e-01  -7.0933933003752267e-02  8.4987474236637661e-01  1.7790995089290432e-01  1.6023985010539368e-01  3.6404816116422023e-01  4.5563912528544603e-01  -9.7768289989041048e-03  4.1843561502194836e-02  2.5400346832405135e-01  4.0692334847272144e-01  -1.0609220328803709e-01  2.4825356215954480e-02  5.6202056895986036e-02  6.4776189658096464e-02  3.2212754538749964e-02  3.5132465610172475e-01  1.7570799767778162e-02  4.5166255176995623e-01  1.8831873815557623e-01  1.9584984083382836e-01  1.9366961283392861e-01  7.7072085217282718e-02  3.0616870177233141e-01  3.6600766582354161e-01  -5.9850775987637141e-02  2.7033297682031554e-01  -2.0332408430602373e-02  1.4058356458906635e-01  9.8671337531993503e-02  9.8117038586824287e-02  1.7055596356760391e-01  2.0379238951177359e-01  2.9962580261594263e-01  2.8756271261899258e-01  1.4688374809275395e-01  1.9566246247908906e-01  7.8549055041701024e-02  2.2715903627103473e-01  4.0565856597775385e-01  2.5031254450659207e-02  7.3537286389272247e-02  4.2738835633934713e-01  7.9246398044691094e-02  2.5832571175074115e-01  2.5517775320417790e-01  3.4211497666027219e-01  3.5420182681313916e-01  2.6469848580694222e-01  3.6645567771121557e-01  2.4383931034217596e-01  4.3993047459196571e-01  2.7391884956675155e-01  1.7954480205145640e-01  3.2977013529083948e-01  8.6417168528472185e-02  3.7847539828732463e-01  9.3221204218325282e-01  3.3403368011713291e-01  3.2779073741029574e-01  2.4163622026510084e-01  6.5111786374124903e-02  1.0060048512793650e-01  1.5431585782365398e-01  8.4514746751775760e-01  7.8539141823709269e-01  9.1371773284405700e-01  1.2211725298290943e-01  7.5314455193761162e-02  2.1064001433359350e-01  9.7329426291731092e-01  8.9820564628492694e-01  8.7828151477500527e-01  4.0104835554843377e-01  4.8903397321868569e-01  3.4991729635685598e-01  2.3803250185425845e-01  6.8201451667739790e-02  4.7679645518299563e-01  9.6370994555532802e-02  1.0232594975017124e+00  1.0077417916723213e+00  3.3971675453478112e-01  2.6360934029442595e-01  4.0536270917169137e-01  3.0605607733473006e-01  5.4863984027697965e-01  -1.6182484123632695e-02  6.9213863246932539e-03  3.1708529113715589e-01  5.7375223272870583e-02  4.5850532917276990e-02  4.4747303633065443e-02  8.9461346322211061e-02  2.0767234352722047e-01  1.4399175394897046e-01  1.2070515025806487e+00  8.9379518088295348e-02  9.3438416185231229e-02  -3.0573111428683086e-02  7.1553356832115522e-01  8.9298008618397773e-01  9.4877035027321066e-01  3.3545250331551861e-02  4.2915977771238838e-02  2.0052943830672970e-01  4.1788364112341519e-01  8.1945681532059034e-01  4.2907644502693709e-01  -3.2755518662137889e-01  6.6587630020412986e-02  -1.1239023034072293e-02  3.7962051042020280e-02  6.1375186690005690e-02  1.0158534557203345e+00  2.5780627599953398e-01  9.5787195415753135e-01  7.3510245660055473e-01  5.6749436405488141e-01  4.0381024686352969e-02  1.6777998983932355e-01  4.8799097465624569e-01  4.6309805131899751e-01  4.3421346934882682e-01  8.9419448445105387e-01  8.2682316657201427e-01  2.8937493260305436e-01  2.1993695432780566e-01  3.2387199628566304e-01  1.2951035213413295e-02  -3.9467086335204571e-02  -7.4482153638410868e-03  2.2127042109537868e-03  1.5469693103528243e-02  -7.6161775837831638e-02  8.5123551509994211e-01  3.3051345502439398e-02  4.6549170008665369e-01  4.6752287046860286e-01  5.0531287364368516e-01  4.7367834400555747e-01  4.5035232387229063e-01  7.9499179214885951e-01  1.1144328919005947e-01  1.0170214310598078e+00  8.9541583512868603e-02  9.6821348384491163e-02  4.6289625797423122e-02  7.8474566735066989e-02  1.6344475928556182e-01  4.8520758912359052e-01  3.7692783502998081e-02  1.0566564032406904e-02  2.3008267040169630e-02  4.4393798673041931e-03  -4.1246549769243822e-02  7.3684973077975602e-01  9.1411787022332602e-01  6.8902071722844860e-01  9.6566076942932733e-02  4.3918325363934557e-01  3.7034862956898618e-01  1.2321273169247515e-01  7.7207160963051791e-01  3.4324063888694120e-02  7.8891219781740607e-01  3.9712803523350687e-02  5.5624795201246753e-02  3.8979998992989123e-02  -9.1048164466226433e-03  6.0628656751706167e-01  2.2690569160167526e-01  8.4529932182023412e-02  2.7880959203849465e-01  2.7652927499734640e-02  2.2140129991196494e-02  1.7138411923670393e-02  4.2503420140706828e-02  8.7136294125799263e-01  1.8690092243071846e-01  3.9595026038759265e-02  5.3172859261328176e-01  4.3760605008813923e-02  8.3923835457291818e-01  1.0246798019456433e-02  4.6440119019134896e-01  1.7097258775415855e-01  4.2221691012634199e-01  3.9591635142977527e-01  6.2071785350431141e-01  6.1811903683830889e-02  2.2863680607806997e-01  2.3902080111704474e-01  1.9169201091186353e-01  2.3595883916479085e-01  2.0215298908900800e-01  5.3669670704604644e-01  8.1363263662734164e-01  1.5120384482760793e-01  3.7045584613625371e-01  2.7982211611750851e-01  3.5871330507075555e-01  2.5148937048425463e-01  8.3060046838415003e-02  1.1589345177033043e-01  -9.7500429883243291e-03  5.0742620045026540e-02  4.5204415718749995e-02  3.9248655036756702e-02  2.2134344285237337e-01  3.3243278851433100e-01  4.4014170858857721e-01  1.7548441641284943e-01  1.0730224134028950e-01  1.3908585975500928e-01  1.0109119735613969e-01  8.9167798146815441e-03  1.8819233241342179e-01  1.8203754465403016e-01  2.2501974157250176e-01  4.4287238313352556e-01  3.1349286348602173e-01  3.9680584125085949e-01  3.8279634018327069e-01  3.2582210368767928e-01  3.3690990320849851e-01  1.7973157651521682e-01  9.5548219619050379e-01  2.8886578755487674e-01  1.5651259548040897e-01  1.4987497286295551e-01  2.2456497259047223e-01  4.0815277254848525e-01  4.2117763795098312e-01  2.1127358525499348e-01  1.6489179386073591e-01  1.5869652513538440e-01  1.7375782606221313e-01  4.2950553965328531e-01  4.3301826133634763e-01  4.4630391386713258e-01  4.3409524256640303e-01  4.3449061234660896e-01  4.4681307026558609e-01  4.4109138934556480e-01  4.2437866505034116e-01  4.0862594509580080e-01  4.2030040563151627e-01  5.4846784039102447e-01  3.1463646505900461e-01  1.0833229189286024e-01  1.0653978969931428e-01  1.0076416697005312e-01  3.9946569469422588e-01  3.8896635693442883e-01  1.7502872245598095e-01  9.1494797510832476e-02  2.8942054087807956e-01  3.0441620724986906e-01  3.0002321341908367e-01  4.2067569875454919e-01  4.0899319742600937e-01  4.0909341670370508e-01  1.3636776928849478e-01  1.4746421914560903e-01  4.2179224355996220e-01  2.1788811502969049e-01  4.2983037772282817e-01  1.5660309093072153e-01  1.4834861375694103e-01  3.2154903496630094e-01  3.1104940614849780e-01  3.2451139870240520e-01  3.1787538911577451e-01  1.6837792300222490e-01  8.4077725756669663e-01  2.9423872480596519e-01  1.2109990217446107e+00  -4.0798259054136549e-01  -6.6873453409283853e-03  1.2679980462779281e-01  6.9439928423534092e-01  -4.2802858109906727e-01  -6.0930833672329654e-02  1.1092557923267057e+00  -7.4174420733646684e-01  1.0812456142647888e+00  -5.1260242189791749e-01  -4.8561473877761469e-01  6.8538952845409551e-01  3.3145901670429306e-01  1.3552336041422117e+00  3.2708312810548590e-01  2.5596286156458187e-01  -4.8171214550391872e-01  2.2694051481000233e-01  7.7393097120412480e-01  -8.0040270089263466e-01  -4.3773654247060556e-01  8.6691623181201016e-01  -9.1997746469161357e-01  -9.6197135271713119e-01  1.2784232000934459e+00  8.2108160647901041e-01  7.2421603701687987e-01  6.2562641924045037e-01  7.3600638179738787e-01  7.1875750385028669e-01  7.5606470309973794e-01  6.0876444068066093e-01  6.7637798204545685e-01  7.5536554514020304e-01  4.0642857006991712e-01  6.1028437458952067e-01  3.6314008540642784e-01  1.3000813118221910e-01  2.5110751634600192e-01  -1.8741821179339846e-01  1.2738197612615307e-01  -5.2428010934843905e-01  -2.8149861023597189e-01  -1.1078620518092287e-02  -8.5161199533662235e-01  -4.0123678970786780e-01  -7.6780147876018734e-01  -1.1211264729810300e+00  -8.4218383885609616e-01  -1.3265103383871102e+00  -9.2351724240595889e-01  -1.1902501085477626e+00  -1.4273236394637456e+00  -1.1839332787388801e+00  -1.3717037702974131e+00  -1.1835553836014392e+00  -1.2166957712741389e+00  -9.0946912743497998e-01  -1.1840359619003797e+00  -9.4911847972478269e-01  -8.2540891315576392e-01  -5.6477593878655741e-01  -2.3485808544133380e-01  -7.3058694206402386e-01  -2.4578029125826303e-01  -1.4961941985784208e-01  -5.5342484730560068e-02  2.9564446834625102e-01  1.1387184891192301e-01  4.9680919492202347e-01  6.9972917940844059e-01  6.7264551613814483e-01  1.0441203246433890e+00  1.0234949683129053e+00  8.2761396073395010e-01