<?xml version="1.0"?>
<VTKFile type="UnstructuredGrid"  version="0.1"  >
<UnstructuredGrid>
<Piece  NumberOfPoints="4269" NumberOfCells="8234">
<Points>
<DataArray  type="Float64"  NumberOfComponents="3"  format="ascii">0 1 0  0 0 0  7.5 0 0  7.5 1 0  1.197537668119028 0.5812868930080463 0  1.2 0.55 0  1.197537668119028 0.5187131069919538 0  1.190211303259031 0.4881966011250105 0  1.178201304837674 0.4592019000520907 0  1.161803398874989 0.4324429495415054 0  1.141421356237309 0.4085786437626905 0  1.117557050458495 0.3881966011250105 0  1.090798099947909 0.3717986951623264 0  1.06180339887499 0.3597886967409693 0  1.031286893008046 0.3524623318809725 0  1 0.35 0  0.9687131069919538 0.3524623318809725 0  0.9381966011250105 0.3597886967409694 0  0.9092019000520906 0.3717986951623264 0  0.8824429495415054 0.3881966011250105 0  0.8585786437626904 0.4085786437626905 0  0.8381966011250105 0.4324429495415054 0  0.8217986951623264 0.4592019000520907 0  0.8097886967409692 0.4881966011250107 0  0.8024623318809725 0.5187131069919539 0  0.8 0.55 0  0.8024623318809725 0.5812868930080463 0  0.8097886967409693 0.6118033988749896 0  0.8217986951623264 0.6407980999479095 0  0.8381966011250105 0.6675570504584947 0  0.8585786437626906 0.6914213562373096 0  0.8824429495415054 0.7118033988749896 0  0.9092019000520907 0.7282013048376736 0  0.9381966011250106 0.7402113032590307 0  0.9687131069919539 0.7475376681190276 0  1 0.75 0  1.031286893008046 0.7475376681190276 0  1.06180339887499 0.7402113032590307 0  1.090798099947909 0.7282013048376736 0  1.117557050458495 0.7118033988749896 0  1.141421356237309 0.6914213562373095 0  1.161803398874989 0.6675570504584947 0  1.178201304837674 0.6407980999479094 0  1.190211303259031 0.6118033988749896 0  3.75 0 0  3.75 1 0  1.875 0 0  1.875 1 0  0.9375 0 0  0.9375 1 0  1.40625 1 0  5.625 1 0  5.625 0 0  2.8125 1 0  2.8125 0 0  4.6875 0 0  4.6875 1 0  6.5625 0 0  6.5625 1 0  5.15625 0.5 0  4.21875 0.5 0  2.34375 0.5 0  3.28125 0.5 0  6.09375 0.5 0  7.5 0.5 0  6.897916666666666 0.5 0  1.842708333333333 0.5 0  0 0.5 0  0.46875 0 0  5.625 0.5302734375 0  7.03125 0 0  6.09375 1 0  2.8125 0.4697265625 0  3.28125 0 0  2.34375 1 0  2.34375 0 0  3.75 0.4697265625 0  4.21875 0 0  4.21875 1 0  4.6875 0.5302734375 0  3.28125 1 0  5.15625 0 0  6.09375 0 0  5.15625 1 0  0.46875 1 0  1.40625 0 0  7.03125 1 0  0.3954638734376499 0.5975780249976004 0  6.495833333333334 0.4072265624999998 0  5.859375 0.25 0  4.905729166666666 0.26513671875 0  4.453125 0.25 0  3.531770833333333 0.73486328125 0  3.968229166666667 0.73486328125 0  2.594270833333333 0.73486328125 0  3.030729166666667 0.73486328125 0  6.328125 0.75 0  7.198958333333334 0.3125000000000002 0  7.198958333333334 0.6874999999999998 0  5.390625 0.25 0  0 0.25 0  2.109375 0.75 0  2.109375 0.25 0  1.51921323205749 0.3418883887525936 0  1.522346610178253 0.6811769608297746 0  5.375456746419271 0.75 0  4.921875 0.76513671875 0  4.437956746419271 0.75 0  3.984375 0.23486328125 0  3.500456746419271 0.25 0  2.578125 0.23486328125 0  3.046875 0.23486328125 0  5.874543253580729 0.75 0  6.642123189445656 0.6909095493086836 0  6.746354166666666 0.2391688368055553 0  0.3197109619185111 0.2850049285972083 0  6.328125 0 0  0.6313375889370429 0.2351325552547357 0  0 0.75 0  6.252283381534729 0.2693808819694041 0  0.234375 1 0  6.948437500000001 0.7543055555555555 0  0.5934018769555939 0.7694151657947577 0  1.858854166666667 0.75 0  1.858854166666667 0.25 0  1.640625 0 0  2.093229166666667 0.5 0  7.5 0.25 0  3.282227579752604 0.75 0  7.5 0.75 0  1.171875 0 0  1.303539853147731 0.2235426933121065 0  5.148177083333333 0.2575683593749998 0  2.351822916666667 0.742431640625 0  1.640625 1 0  4.202380413457425 0.7645435094236485 0  3.047822985053062 0.4701848030090332 0  2.577177014946938 0.4701848030090332 0  4.672792740482199 0.76513671875 0  4.922822985053062 0.5298151969909668 0  5.390593497949761 0.5156244924311331 0  5.610292740482199 0.76513671875 0  3.516602579752604 0.5 0  4.45496853898097 0.4865915990446593 0  5.85753146101903 0.4865915990446593 0  3.749511210123698 0.23486328125 0  3.983397420247396 0.4999999999999999 0  2.343497975411212 0.2346270081980111 0  4.219002024588788 0.2346270081980111 0  0.703125 0 0  2.8125 0.2343755075688669 0  3.046875 0 0  2.578125 0 0  3.515625 0 0  3.984375 0 0  4.453125 1 0  5.390625 1 0  2.109375 0 0  2.109375 1 0  5.625 0.2921402030705575 0  5.390625 0 0  7.265625 0 0  6.796875 0 0  6.328125 1 0  3.046875 1 0  2.578125 1 0  3.984375 1 0  3.515625 1 0  4.453125 0 0  4.921875 0 0  5.859375 0 0  0.703125 1 0  1.171875 1 0  7.265625 1 0  4.921875 1 0  5.859375 1 0  0.234375 0 0  6.796875 1 0  6.980310975276531 0.2285890127127066 0  5.149170481934885 0.772689292163473 0  3.274170481934884 0.2273107078365268 0  6.101334126790364 0.7722468376159667 0  4.678005340872584 0.3000799877067239 0  2.8125 0.6921051326382495 0  3.75 0.6921051326382495 0  0.3515624999999999 0.8134571721668546 0  0.4990405774417521 0.4070099317153735 0  0.1789273931360182 0.625 0  6.31239060814315 0.5298877111157968 0  6.456979773992304 0.1917956348713352 0  6.699870808919271 0.4406293402777773 0  1.337539480965883 0.7944303676599538 0  6.058675797563041 0.2019812164653516 0  0.8203125 0.1643029084422534 0  0.1480856513011711 0.375 0  1.090769294689562 0.1719186776982972 0  7.291088163206459 0.5 0  7.094502414936563 0.5197902199074071 0  0.6046212059042245 0.5730066483871106 0  1.707231580809486 0.6342709161352207 0  1.685961352504593 0.8193269193390785 0  1.374721602852827 0.4600373025865813 0  6.486415510043844 0.5916440776477192 0  1.5234375 0.1508863828685116 0  1.707925830421689 0.3657739208189008 0  0.1674513225045584 0.8278776664019765 0  7.138268756771176 0.1438183366439137 0  7.1484375 0.8616388888888887 0  7.328562530764119 0.819498462930605 0  4.101073710123698 0.3678637200736647 0  1.693878467219965 0.1911955120941053 0  1.577566745468488 0.5110082404081502 0  6.6796875 0.8653871806883484 0  6.498039504430512 0.825568433346395 0  0.7562556668576472 0.8333197949571929 0  4.101045914668806 0.6255195807449272 0  5.030745188395182 0.382829047309028 0  2.476364945868651 0.6095868094762166 0  2.729359843907322 0.8460525663191247 0  2.9296875 0.8740763101564099 0  3.163518307559356 0.6254622797994247 0  3.666859843907322 0.8460525663191247 0  3.8671875 0.8740763101564099 0  4.8046875 0.12592368984359 0  3.14936031382311 0.8606990583876851 0  2.4609375 0.8747622921397776 0  5.023140791101972 0.1392266772452574 0  0 0.125 0  0.1759922923594607 0.1727589856739889 0  4.5703125 0.125 0  7.327755777818006 0.1766156770456191 0  5.5078125 0.125 0  5.719712725029036 0.1460701015352787 0  4.327848962028002 0.3674169956512513 0  5.982681121544351 0.3692637923021713 0  3.398926289876302 0.6245417594909667 0  5.281756792511996 0.3827993367299961 0  2.226822645963271 0.6252438868405666 0  2.234390064317166 0.8676616584526566 0  5.2734375 0.125 0  1.96796875 0.382568359375 0  2.234651037971999 0.3674169956512511 0  1.984114583333333 0.132568359375 0  1.9921875 0.875 0  1.984114583333333 0.632568359375 0  5.748733794462357 0.8678269127183313 0  3.3984375 0.875456329184688 0  1.512925924995415 0.8582958012121853 0  1.359299372802969 0.6275861864990343 0  4.810521420483513 0.4041767793635395 0  0.2996213306116602 0.455339710363317 0  5.999933717403708 0.6388425470751088 0  5.250033449003657 0.6388713364551682 0  3.631676045992918 0.3525406652400928 0  4.3359375 0.8816499670325881 0  4.343577437052484 0.6116511299909198 0  3.375033449003656 0.3611286635448316 0  5.763152151652243 0.6249404690537395 0  4.549347848347757 0.6249404690537396 0  5.5004588702411 0.6403667365776566 0  5.976118394847484 0.8816230218343086 0  5.054722486865804 0.6338007028640954 0  3.164542163493752 0.3520519332736524 0  2.445407482032355 0.3672168403687257 0  4.8046875 0.882568359375 0  4.1015625 0.117431640625 0  2.4609375 0.117431640625 0  2.695556894938151 0.3520510350344335 0  2.929443105061849 0.3520510350344335 0  3.881979231817319 0.3670559016511187 0  3.8671875 0.117431640625 0  4.805389247695744 0.6470047893641744 0  3.399370721942191 0.1184066543556767 0  5.274370721942192 0.881593345644323 0  3.618253274934649 0.1316869186284249 0  2.6953125 0.1171877537844335 0  2.9296875 0.1171877537844335 0  2.21873344389451 0.125 0  4.3359375 0.1171877625080073 0  0.6659898565672709 0.3986593551313873 0  7.363359022954956 0.3481046411219251 0  7.363359022954956 0.6518953588780749 0  5.487719392831826 0.3828237631077121 0  2.695054578344725 0.5809158475691247 0  2.944553877887707 0.5964065668438148 0  0.3515625 0.1201898858097106 0  5.5078125 1 0  4.5703125 1 0  5.031746201297604 0.882568359375 0  3.1640625 0 0  6.2109375 1 0  6.186845385763124 0.6336356480571081 0  4.1015625 1 0  6.810399074069772 0.6495574751396682 0  0.4740615253480797 0.2509287743856873 0  7.052064303830151 0.3684417917792242 0  6.195177069665382 0.1216488332168849 0  5.72300154718324 0.4112068202852788 0  3.879157465495092 0.6111892850691246 0  3.645760045247695 0.5809158475691247 0  6.868257400485771 0.3427840810237202 0  6.612030892260864 0.1521752713064389 0  6.615666885941117 0.3151079644097221 0  4.04296875 0.8633718902669071 0  1.183031453639096 0.8486801864185936 0  6.9140625 0 0  6.859079526500421 0.1398292786950638 0  6.808232443325651 0.7957411753922057 0  6.9140625 1 0  4.544955211100143 0.3675874343205077 0  1.0546875 1 0  6.122060236165557 0.3316791557072867 0  0.5859375 0 0  5.9765625 0 0  5.44921875 0.870984788733638 0  4.51171875 0.870984788733638 0  0.7608354256382215 0.2931261274224557 0  6.386875332239937 0.3156583003094978 0  6.985654756850997 0.6147408423643147 0  6.223797257919172 0.8535621912121121 0  5.936822413218736 0.1338376546337823 0  6.23933008800134 0.4095573603773768 0  0.5414022462152697 0.1305482677949959 0  6.331360438104348 0.1370086318183389 0  0.956404929269873 0.1374266563647954 0  1.2890625 1 0  0.691305981127761 0.6764829884281737 0  3.531251607241209 0.8678916320952239 0  2.59787442813022 
[...]
<PointData  Scalars="f_71633"> 
<DataArray  type="Float64"  Name="f_71633"  format="ascii">7.0882889248182757e-01  7.4729170715551396e-01  0.0000000000000000e+00  0.0000000000000000e+00  -1.3978158394075690e+00  -1.1063546792965215e+00  -7.3651287781884656e-01  -4.7553954622767614e-01  -3.3849960794259487e-01  -2.6395528041118244e-01  -2.0887969330684208e-01  -1.9016299001163983e-01  -2.0770262928297806e-01  -2.4374637398526317e-01  -3.3435760097597284e-01  -4.9217823550767970e-01  -6.5964764507520635e-01  -7.4805425147243132e-01  -6.3295182214188606e-01  -3.4077133094965556e-01  1.1844678262815239e-01  6.4882796925035646e-01  1.1512092439506600e+00  1.5802416575600620e+00  1.8288133657133256e+00  1.8585640102037131e+00  1.6522518326184588e+00  1.2474683513856202e+00  6.7499556902869073e-01  6.7804232520242855e-02  -5.7040325304932160e-01  -1.1634073439892121e+00  -1.6099655136248967e+00  -1.8987602949223437e+00  -2.0240159970576377e+00  -1.9502993808703057e+00  -1.8085081786471349e+00  -1.6751239152306807e+00  -1.5871547242313082e+00  -1.5346443593662111e+00  -1.5039786693990280e+00  -1.4909091782768595e+00  -1.4970109198496206e+00  -1.4978822712618947e+00  1.5510743810032800e-02  1.1509485288789488e-01  -5.3072398463526749e-01  1.4553408027802861e-01  4.3529146236019761e-01  -3.8279462941725811e-01  -8.3559042722438825e-01  4.2503517048117695e-02  4.2787761111936461e-02  -7.1312867568612037e-01  3.3969131614994158e-01  6.7094296994887462e-02  6.5293136060133414e-02  1.8081831002220307e-02  3.3022954781845422e-02  5.5892385510680875e-02  8.0712473466818022e-02  -7.1074660222218922e-02  -4.8579634856885889e-01  3.2720392908655381e-02  0.0000000000000000e+00  1.0805056783137165e-02  -8.9391821891547996e-01  7.6362836535046497e-01  7.6180814098730132e-01  4.4308445882676233e-02  5.1790785687848657e-03  3.5029591375402340e-02  -1.1687719661801612e+00  -1.0349733876067024e-01  1.5882940354128020e-01  -2.6503240274120671e-01  5.7830944460559017e-02  7.1447387903048803e-02  8.3277633570745413e-02  6.7793375252582611e-02  3.3732347662552797e-01  5.1219626123534784e-02  3.0995939805410402e-02  5.4651201920586152e-02  6.3225232193993475e-01  -2.7046658503665322e-01  -2.0211065202408205e-02  8.4538306447932832e-01  2.0604363165403199e-02  3.8807785102468004e-02  6.1628127085268013e-02  6.9578860908684773e-02  9.9918995105689717e-02  1.0357853688422235e-01  -6.2349570592201298e-01  -4.7759439371806772e-01  2.6473824086491678e-02  6.4546886288898717e-03  5.4640693061124897e-03  5.0014043396201920e-02  7.5190796193802478e-01  2.2403181063418043e-01  -3.0143906184475172e-01  -1.5122906321373593e+00  -1.4262440890404016e+00  4.9801963590360550e-02  6.2019464560608993e-02  7.6321511967115341e-02  6.1784609239730240e-02  -1.0957357138681473e-01  -3.3319074912716767e-01  4.4024242135754940e-02  3.7899149066472550e-02  1.8093583480914815e-02  1.3209458917040692e-02  7.8098586047067353e-01  2.5641614223782992e-02  8.1269439779481523e-01  7.2609132271955223e-01  2.6374002722678806e-02  6.9839054790866517e-01  6.5765262262348755e-03  7.0529086260795071e-01  3.4456740067022856e-01  -5.6360772418763505e-01  -3.6627911957713788e-01  2.0042771477949996e-02  0.0000000000000000e+00  1.4044001197126602e-02  0.0000000000000000e+00  3.8856287908241381e-02  -2.8698487745458490e-01  5.4960621682396890e-02  1.6267391209279913e-01  -3.0206359948105199e-01  8.8073244100444953e-02  -5.1678469099281144e-01  -8.3345985991658722e-01  6.8923924254274321e-02  6.2171432805975660e-02  5.0000276095742431e-02  4.4128170131904142e-02  -6.8243901230661277e-02  7.3052803783074105e-02  3.8762404009812033e-02  1.6446824288505125e-02  8.3300540561102560e-02  -3.1474140852244625e-01  6.9291980146986620e-02  7.3558819868659553e-01  4.4869886716681573e-01  1.1654005104620739e-01  -1.7970762901909808e-02  -7.6606820381679111e-02  5.6270410491451824e-02  7.6487576429048687e-02  4.8438123656868809e-02  -4.1256614702950667e-01  3.4541247397214581e-01  4.4332853851332087e-02  4.7228961692698204e-02  1.0053268241400810e-02  4.6618559920008681e-03  3.0256566937116470e-02  -1.2619818539723898e-01  -2.4057822479678426e-01  9.7866961534264482e-02  2.5066626448775342e-01  7.0211175586773103e-02  6.0601047640525450e-02  3.3260545113050294e-02  4.0166318112034255e-01  -1.0470855226598725e+00  -1.2941521531946245e-02  5.8750518341778760e-02  3.9247266587680740e-02  7.4883369786610166e-01  4.5542162224021639e-02  9.1219964911652060e-03  5.5769423336382636e-02  -2.3448627963560834e-01  3.2881023586192229e-02  6.6992590791963541e-02  -1.3494602711113128e+00  1.3844026880045551e-01  7.0210161288190931e-01  9.4569931818217701e-01  7.6134192250706889e-01  2.5843889622791636e-02  1.5250061338855600e-02  1.4806145654847259e-02  -1.4454744896097045e+00  3.1749462269930612e-02  5.8582284567592646e-01  7.6694186221563521e-01  8.5180291497885280e-02  -7.2087675067728678e-04  7.9442612533976286e-03  1.1499687186276670e+00  -6.6066782654061207e-01  -5.6316236639773920e-02  -1.2839729800906128e+00  2.1074040244970952e-02  -4.5433782479595486e-01  -1.3681638599393775e+00  7.1537690078424365e-01  1.2816054523954359e-03  -9.6864175840538757e-03  -2.5689173453605518e-03  7.5506765328694242e-02  -5.8752043484307337e-01  -1.4807707324408383e+00  1.7584945413020522e-02  2.2802280303315357e-02  2.9833009732121224e-01  8.5438844083537871e-02  5.7838237275392529e-02  -2.5123320560138374e-01  -9.0526379778084531e-01  -6.8921138964836348e-01  -2.6424157172066137e-01  1.3623463277079254e-01  1.0751903754219806e-01  6.3619042802294301e-02  3.4325358208360433e-02  2.0014172355497344e-02  5.7791132940310339e-02  7.4755951723806657e-01  7.4864049548978162e-01  6.8904605325128945e-02  4.3286537807744581e-03  4.6320490442221487e-02  4.1370279607858114e-02  7.5359225258993287e-02  3.5809309154840090e-02  5.2034287412714986e-02  5.2330610139158157e-02  8.7678590357589958e-02  2.7862753140748864e-01  5.1382951274503007e-02  -2.4959534239717998e-01  -1.8603635915437339e-01  -6.2044732546166503e-01  3.0320646445516830e-01  2.1402302135887250e-01  4.1226569189991853e-02  3.2685218837354146e-01  -7.1828311680094536e-01  -1.8270619655900435e+00  6.3618246826886507e-02  8.1350484891408215e-01  3.5326450626014257e-02  5.2915641592189949e-02  -2.3036668482092012e-02  7.9900487315583191e-02  8.0779462678477701e-02  -2.9415121189545118e-01  4.0542100705868250e-02  7.0995919478652275e-02  4.6999642110253058e-02  3.5655632416651289e-02  5.7320207634161888e-02  -5.3686030127334783e-01  -7.2893362180956245e-01  6.6200101939425632e-02  6.7961190152891898e-02  -2.4387912945297319e-01  -3.4063169791379855e-01  -7.4419244576226243e-02  6.1059717891294787e-02  4.0123730527173572e-02  6.4052634757177526e-02  -1.1897038400324295e-01  5.3840748086478145e-02  -2.8709072991751301e-02  2.4909678209495750e-01  3.0428949923946502e-01  -3.0634184367185030e-01  7.1356044033339797e-02  1.1247677128122677e+00  6.8558162220170209e-03  -1.5310702252548474e-03  4.6621361850362066e-02  -1.3456873656902493e+00  -8.8341837710526017e-01  7.5208970003888542e-01  4.8719320695060471e-02  7.2426356714370685e-02  6.0316306907050393e-02  -3.3150093012422450e-02  3.1150351344301146e-02  2.9444043722191681e-02  9.7124753334867545e-02  1.2272915378817247e-02  8.0453582891724362e-01  3.4403581037225116e-03  3.0655684896868419e-02  4.1184865773615596e-02  9.8596737720095001e-02  -7.8702071256094353e-02  1.0140420123341024e-02  1.3513999114568652e-02  1.2617511670604568e-02  9.5186062467399205e-02  -1.2620153544233519e+00  2.3517692553591867e-02  1.3483186367903894e-02  7.3715772968889759e-03  -2.1472782687199390e-02  7.0902679318289502e-02  -8.5885536968244636e-01  2.9869697621819055e-02  7.6309229135102263e-01  3.9420785579158603e-02  4.8634278131414278e-02  7.4001818939758615e-02  7.4321207492213126e-01  2.1759138752203713e-02  4.7589035759527847e-03  2.9675126124495601e-02  3.7643342481823279e-02  2.8901476116170360e-02  7.6721031200702750e-01  2.4702083881025190e-02  3.5856498682661220e-01  -1.0355578603397655e+00  9.8179274566288688e-01  2.2169244349930980e-01  -3.3148263228114982e-01  -1.4408939551864774e+00  -4.6676518300741388e-01  -6.3246010027837335e-02  7.6686396338274987e-01  6.4571984508593416e-01  -8.0725351780327317e-02  9.5099673747914074e-02  1.8448615905234219e-02  -3.5219103251979106e-01  -2.3985274502762888e-02  -3.9582636024784231e-03  -3.4277882838052954e-03  5.4810128051948381e-01  -9.6598384838328755e-01  7.3874184652824604e-01  -5.9447658092812432e-02  7.7867568291645428e-01  5.4975190973343115e-02  -1.3688823137607806e-01  -1.4533640206716683e-01  -1.6424152770911374e-01  -7.2787585554024592e-01  -3.9812259525459232e-01  -4.6394646015245483e-02  -2.5103482952394115e-02  2.1599648059056101e-01  0.0000000000000000e+00  0.0000000000000000e+00  7.1149817234712465e-01  7.6115000552325440e-01  7.4808204542799372e-01  0.0000000000000000e+00  0.0000000000000000e+00  2.7349161057081003e-02  2.8237593455800819e-01  -1.0736690892923435e-02  -1.6440802785204514e+00  -9.7696467724117919e-01  -2.2166497563764941e-02  7.4697648193111199e-01  -3.0747619687555450e-01  7.2922759453843444e-01  1.2173558533133953e-02  4.1915496034273886e-02  8.4774780754568194e-02  1.5452099217372348e-01  5.1758014987702036e-02  5.4482426121468724e-02  2.9668250632370391e-01  4.5678732925765977e-02  5.7800026278400876e-02  -4.8635699416186340e-02  2.3269007362955596e-01  3.3928008178768487e-01  7.0726034270863891e-01  5.0836085716610113e-01  3.9833023867854270e-02  4.5674188171116230e-02  3.8041846346542223e-02  4.4225482998772610e-02  3.4884626584828701e-02  7.7486721035832873e-02  3.9147197007847710e-02  7.0762887805247698e-02  1.3785601864347815e-02  8.0809474990895497e-02  8.9322871052224723e-02  9.2217437140852926e-02  -1.2121019526549984e-01  6.4828920931985834e-02  -1.5478121657408714e-01  7.7907632172760852e-02  -2.3789263463417365e-01  -1.9958727788007519e-02  7.9661352081695391e-02  -4.2742435016666125e-01  -6.3037551839518602e-01  5.7275135112419807e-02  6.2255688866705079e-02  -5.7215505383901655e-01  -7.1104133472488207e-01  6.3928348476335523e-02  6.8540578556374229e-02  4.4223152216685796e-02  4.4012240932627907e-02  6.7689227275973027e-02  4.7638947248911996e-02  7.1607499586807122e-02  -2.4244609781913073e-01  5.1149616912092702e-02  3.3483296593836885e-02  4.9947710056261911e-02  1.2285023115212783e-02  4.7002849854937127e-02  4.6234384280812543e-02  -4.1158164557942994e-01  7.2051773867813806e-02  -2.6371598555653114e-01  -2.7355207400577369e-01  -5.7742128903330991e-01  7.3118004868013398e-02  6.9773372788269811e-02  6.7163563192624079e-02  3.1543062855701093e-01  2.6388304885852415e-01  -6.0191761786262538e-02  7.0856900123555541e-02  3.1796815858184689e-02  7.5094784486726007e-01  7.0615069612003450e-02  -3.0661972717154079e-01  3.7967885349797181e-01  2.7845329591847906e-01  2.2318144467107945e-01  -9.8712836801590195e-02  5.7909132033618665e-02  3.6661648361376142e-02  -1.9759912763038653e-01  6.7086498798332214e-02  6.8598066090936244e-02  8.1044073544539810e-02  -2.6112399851941116e-02  3.2320187995090333e-01  4.2200366371002197e-02  2.8596794997241681e-01  -5.7656429157629230e-01  5.4160329126712453e-02  2.6745421164607736e-01  4.2239644439780871e-02  4.9457476228901072e-02  4.7575128063808848e-02  6.9039412752582394e-02  5.8679107795063447e-02  5.2312079354772262e-04  1.8362615988484604e-01  6.4041440704055527e-02  1.1395263828949573e-01  1.6979877174277955e-01  -5.1867014345882856e-01  -5.8449986718436353e-01  -1.2691695550545950e-02  -2.0930344806590697e-02  -1.4910562523909196e-01  2.9794628946775253e-01  6.3855776893765759e-01  8.9490463996806519e-03  6.7246120299608625e-01  1.1754398759147416e-02  5.4637670858015165e-02  -3.5874328458361671e-01  -6.4071572019280221e-01  3.5252699752068538e-02  6.1307144725145570e-02  5.6050794203382492e-02  -7.6953231531757278e-03  1.3215613273800702e-02  2.2915799617581452e-02  1.9723201898827182e-02  8.0239458398135306e-03  3.4584015077190216e-03  -1.3755079080927857e-01  3.1665001198333384e-04  -9.3937151274486874e-01  6.4412233680288339e-02  6.6786506972779089e-02  6.9229909045366189e-02  -7.2937019290509331e-03  1.1436663702357583e-01  -1.2285457394913275e+00  -1.2903174859231434e-01  -4.2996301088029223e-02  2.2682991057934077e-01  3.4356945701774833e-02  3.5839078821751420e-02  3.9662739253720131e-02  5.8588640324086054e-02  5.4309080176388490e-02  -1.2381329266296286e-01  -1.8590337933052548e-01  5.2996723007602921e-02  6.0789274061618825e-02  2.3460875859516044e-02  7.2572767288551665e-02  1.6458073879529359e-01  5.6870258013654281e-03  2.4558796312708141e-02  -7.5459407050631677e-01  3.0209694532305501e-02  8.8997274371489951e-02  1.0735091753239771e-01  -9.2287695228065758e-01  -1.5310741986028105e+00  4.5708030974672929e-03  -1.3453501314819145e+00  9.4341779297181169e-02  -1.5663566608948607e+00  -2.3633201542591017e-02  6.1469074251194591e-02  -4.7883774370386167e-01  2.9371836670911582e-02  -8.1698607707158577e-01  6.9719176493288748e-01  -3.2480729042277762e-01  -8.1152120017918536e-02  7.5442293330039031e-02  2.1271290850817252e-02  1.8310129980324916e-02  6.1500196523301319e-02  7.5991131003566026e-01  7.3988931274351522e-01  7.8587837500597868e-01  4.0838881625168480e-02  3.6958798023873876e-02  7.1451692888890223e-02  8.8360087273137311e-01  8.3200865328679852e-01  9.0158356291316777e-01  -9.6246937279228506e-01  -1.4062810798304060e+00  -1.1193899759816519e+00  1.2559217486397023e-01  2.2115754876653269e-02  -4.6595936451627978e-01  4.3661036148748271e-02  1.0092653975207928e+00  9.2261774100491345e-01  -8.2889471298018547e-01  -1.1153347768461725e+00  -3.7498695339885124e-01  -6.0473119302565104e-01  -1.6501622980679074e+00  -1.2483303723266228e-03  3.0056942233474849e-04  -2.0610872210543049e-01  1.7368378966892091e-02  1.6076685957079614e-02  9.0779037040971088e-03  3.3057960708945032e-02  7.4874712666480353e-02  4.9363127983797279e-02  1.4638128879325620e+00  3.1621338083133659e-02  3.4725821471627748e-02  -4.9589596530126377e-03  7.5686872003329231e-01  7.6003077582687117e-01  7.8797988487130344e-01  9.5460669957594634e-03  1.2753912549667517e-02  6.5959170779582410e-02  -3.4326861936859310e-01  7.5360059115480471e-01  -3.9626950338248096e-01  -4.3267812770746997e-02  2.3963817762841712e-02  -4.5524605026164410e-04  7.7830821445438328e-03  1.8355548080037618e-02  9.2842384265146427e-01  1.1495681137489311e-01  7.6403586241332933e-01  -1.3613105312551037e+00  -4.9505817728858476e-01  1.1449160522726065e-02  5.5572941554915149e-02  -1.6055673662191696e+00  -1.8712726005327746e-01  -4.0207075432300898e-01  6.6257524052158556e-01  7.6707677735015700e-01  5.4498052819184295e-01  6.9689645070555542e-02  -4.4544651722814144e-01  -1.6179202821321719e-03  -1.6727830564898522e-03  -8.7270336623373988e-03  5.6642848245055518e-03  2.4808443737413194e-03  -1.0358329549999175e+00  7.4657632060212886e-01  -2.0655571936651022e-02  2.7693557025309284e-01  -1.1835119991717931e+00  -1.0348058727994500e+00  -1.4899460010091308e+00  -7.6565830374490873e-01  7.5887917541204175e-01  1.4256601565250096e-01  1.0970362823892066e+00  2.4939758592522371e-02  3.2806529355555336e-02  1.7839324582949782e-02  2.7913948850782057e-02  4.5559114973070823e-02  -2.0421277614599606e-01  -7.0193913537014438e-03  -1.1375295619655878e-02  3.6980941614147161e-03  -7.6262660837908818e-03  4.6899393658555374e-03  4.6991169935612981e-01  7.0466850645362966e-01  7.1765529947045503e-01  3.3959188608353105e-02  2.0319092945011222e-01  -2.2423934544193141e-01  4.3921956704625301e-02  7.4752201841392651e-01  2.4483121601270474e-02  7.0947188905086145e-01  8.6506921833670002e-03  1.8338843229617471e-02  3.6892445909774961e-03  9.5450131667656653e-03  7.4948444281071358e-01  -1.9314875860413014e-01  2.7540217650721621e-02  -1.3487488528236116e-01  3.1652215582444423e-02  1.9035359490394643e-02  2.9645581091265654e-03  -1.4497347402887789e-03  7.6720843615863688e-01  6.6832692429131479e-02  8.3043720527016425e-03  2.5046829083247862e-01  1.7685302839769983e-02  6.0865363797437144e-01  1.2223804638096230e-02  -1.3512632013700312e+00  8.5721538256771729e-02  -8.4519923595637148e-02  1.6236649312685307e-02  7.4024804580972103e-01  1.9382100606085233e-02  7.9687053868089469e-02  6.6827272551877107e-02  6.7129508130928259e-02  1.0670789965368636e-01  7.6620058169496186e-02  6.8646337992070539e-01  1.0293681108093895e+00  5.1153752045255921e-02  -9.6824366300524689e-01  1.3122303935609103e-01  -1.3105740027305992e+00  1.0435552782673035e-01  2.6815795443050988e-02  3.8900592091701588e-02  1.9381048579683721e-03  1.3717608455300298e-02  9.9711233535701976e-03  4.2707351231904798e-03  1.0340145117394751e-01  3.5062044306744929e-02  -6.2759136715337827e-01  7.1486480843982278e-02  4.1433996464030586e-02  4.0694959020908784e-02  3.4015293029913435e-02  -4.4086210475101813e-03  6.0149542450162366e-02  5.6664188429371647e-02  8.3659617869681166e-02  2.8662537567167068e-01  -3.7546322144980604e-01  -1.4036063308651087e-01  -4.9444541852606677e-01  -3.2013068076259371e-01  -6.7287885898644928e-01  6.2101163698914386e-02  8.1959937013328976e-01  1.2219748632516002e-01  5.2636079188474065e-02  5.1533374190789259e-02  7.7526971011980528e-02  -1.8607218120365734e-01  -2.2719129071551986e-01  7.0689883204643186e-02  5.7411291548856637e-02  5.6355028726412723e-02  6.0588977424006221e-02  -4.3347111499990687e-01  2.3834570865081087e-01  2.8480562402513065e-01  1.2388371418241675e-01  -8.1198920317155782e-02  -3.5680983388013832e-01  -4.2429247734870357e-01  -6.1587867235983396e-01  2.1329882297891337e-01  3.2346273870136227e-01  -1.7959214532019898e+00  -1.2844402858012094e-01  3.6157537412532810e-02  3.5802947587251339e-02  3.4278527786691014e-02  1.1426693524245221e-01  -1.0739994020015335e-01  5.4817348623178080e-02  3.0262075970168192e-02  -5.5444298583217096e-02  4.5535140002316843e-02  -1.8220198501886828e-01  1.4774073185508782e-01  4.0726976910525209e-02  1.5203924693962487e-01  5.0773828359315286e-02  4.8309073894843145e-02  3.0694851247794569e-01  7.0258213502963948e-02  3.0124725438455990e-01  5.3442563373970686e-02  5.3821561226811240e-02  5.3454247007489727e-02  2.7581632122967309e-01  2.9985094134569273e-01  3.5284066464389124e-01  4.5526279870862420e-02  5.7979522677074646e-01  2.4009585813921844e-01  1.3521085272380049e+00  -1.3967117208444009e+00  -1.4900813790271512e+00  3.0956172047727565e-01  -1.6898263512179486e+00  -9.6845897142222548e-01  -1.7196716838319553e-01  1.0852828131538284e+00  -1.3800518819505203e+00  1.3999876703939409e+00  -1.9615463885361081e-01  -1.6482238085849610e-01  -6.5112331135893564e-01  -2.5949992569810559e-01  1.6356172602231829e+00  -1.4816076782305561e+00  -2.2427618930547799e-01  -1.5288923064412949e+00  3.7571549249658776e-01  -1.3745140127399704e+00  -2.6850414876085799e-01  -1.0320808747109420e+00  6.4919325014130036e-01  -1.5120127502218210e+00  -1.6030171793301633e+00  1.6735386191805743e+00  1.0818233606807557e+00  -1.2643539117997660e+00  -1.4640777034402814e+00  -1.3423159537157605e+00  -9.1213544029087257e-01  -1.2141844413791847e+00  -5.8803944357288707e-01  -6.6342727130443746e-01  -1.0559605202776687e+00  -3.9761274443136879e-01  -5.3857175681414149e-01  -3.3807786160736719e-01  -2.9605071772838981e-01  -2.9547064882168200e-01  -2.3647073685130332e-01  -2.6633472415396631e-01  -1.9122363644171408e-01  -2.0414182535093539e-01  -2.5029283935497604e-01  -1.9852118258557130e-01  -1.9742690454173412e-01  -1.9950585549384481e-01  -2.2086704713167721e-01  -2.0241648757575859e-01  -2.8161886570052180e-01  -2.1391291114910832e-01  -2.9221106999814045e-01  -4.0594860219271750e-01  -3.4103145724884482e-01  -5.7057533969857521e-01  -3.9767648056240035e-01  -6.8905170403006111e-01  -4.7844248885788837e-01  -4.6060703309047291e-01  -6.7375290109294372e-01  -4.6840604250642270e-01  -4.5712914983439218e-01  -7.2368923325661499e-02  -4.5042429112530824e-01  -1.3729767611439520e-01  -8.6024642083773015e-02  5.17269