<?xml version="1.0"?>
<VTKFile type="UnstructuredGrid"  version="0.1"  >
<UnstructuredGrid>
<Piece  NumberOfPoints="4269" NumberOfCells="8234">
<Points>
<DataArray  type="Float64"  NumberOfComponents="3"  format="ascii">0 1 0  0 0 0  7.5 0 0  7.5 1 0  1.197537668119028 0.5812868930080463 0  1.2 0.55 0  1.197537668119028 0.5187131069919538 0  1.190211303259031 0.4881966011250105 0  1.178201304837674 0.4592019000520907 0  1.161803398874989 0.4324429495415054 0  1.141421356237309 0.4085786437626905 0  1.117557050458495 0.3881966011250105 0  1.090798099947909 0.3717986951623264 0  1.06180339887499 0.3597886967409693 0  1.031286893008046 0.3524623318809725 0  1 0.35 0  0.9687131069919538 0.3524623318809725 0  0.9381966011250105 0.3597886967409694 0  0.9092019000520906 0.3717986951623264 0  0.8824429495415054 0.3881966011250105 0  0.8585786437626904 0.4085786437626905 0  0.8381966011250105 0.4324429495415054 0  0.8217986951623264 0.4592019000520907 0  0.8097886967409692 0.4881966011250107 0  0.8024623318809725 0.5187131069919539 0  0.8 0.55 0  0.8024623318809725 0.5812868930080463 0  0.8097886967409693 0.6118033988749896 0  0.8217986951623264 0.6407980999479095 0  0.8381966011250105 0.6675570504584947 0  0.8585786437626906 0.6914213562373096 0  0.8824429495415054 0.7118033988749896 0  0.9092019000520907 0.7282013048376736 0  0.9381966011250106 0.7402113032590307 0  0.9687131069919539 0.7475376681190276 0  1 0.75 0  1.031286893008046 0.7475376681190276 0  1.06180339887499 0.7402113032590307 0  1.090798099947909 0.7282013048376736 0  1.117557050458495 0.7118033988749896 0  1.141421356237309 0.6914213562373095 0  1.161803398874989 0.6675570504584947 0  1.178201304837674 0.6407980999479094 0  1.190211303259031 0.6118033988749896 0  3.75 0 0  3.75 1 0  1.875 0 0  1.875 1 0  0.9375 0 0  0.9375 1 0  1.40625 1 0  5.625 1 0  5.625 0 0  2.8125 1 0  2.8125 0 0  4.6875 0 0  4.6875 1 0  6.5625 0 0  6.5625 1 0  5.15625 0.5 0  4.21875 0.5 0  2.34375 0.5 0  3.28125 0.5 0  6.09375 0.5 0  7.5 0.5 0  6.897916666666666 0.5 0  1.842708333333333 0.5 0  0 0.5 0  0.46875 0 0  5.625 0.5302734375 0  7.03125 0 0  6.09375 1 0  2.8125 0.4697265625 0  3.28125 0 0  2.34375 1 0  2.34375 0 0  3.75 0.4697265625 0  4.21875 0 0  4.21875 1 0  4.6875 0.5302734375 0  3.28125 1 0  5.15625 0 0  6.09375 0 0  5.15625 1 0  0.46875 1 0  1.40625 0 0  7.03125 1 0  0.3954638734376499 0.5975780249976004 0  6.495833333333334 0.4072265624999998 0  5.859375 0.25 0  4.905729166666666 0.26513671875 0  4.453125 0.25 0  3.531770833333333 0.73486328125 0  3.968229166666667 0.73486328125 0  2.594270833333333 0.73486328125 0  3.030729166666667 0.73486328125 0  6.328125 0.75 0  7.198958333333334 0.3125000000000002 0  7.198958333333334 0.6874999999999998 0  5.390625 0.25 0  0 0.25 0  2.109375 0.75 0  2.109375 0.25 0  1.51921323205749 0.3418883887525936 0  1.522346610178253 0.6811769608297746 0  5.375456746419271 0.75 0  4.921875 0.76513671875 0  4.437956746419271 0.75 0  3.984375 0.23486328125 0  3.500456746419271 0.25 0  2.578125 0.23486328125 0  3.046875 0.23486328125 0  5.874543253580729 0.75 0  6.642123189445656 0.6909095493086836 0  6.746354166666666 0.2391688368055553 0  0.3197109619185111 0.2850049285972083 0  6.328125 0 0  0.6313375889370429 0.2351325552547357 0  0 0.75 0  6.252283381534729 0.2693808819694041 0  0.234375 1 0  6.948437500000001 0.7543055555555555 0  0.5934018769555939 0.7694151657947577 0  1.858854166666667 0.75 0  1.858854166666667 0.25 0  1.640625 0 0  2.093229166666667 0.5 0  7.5 0.25 0  3.282227579752604 0.75 0  7.5 0.75 0  1.171875 0 0  1.303539853147731 0.2235426933121065 0  5.148177083333333 0.2575683593749998 0  2.351822916666667 0.742431640625 0  1.640625 1 0  4.202380413457425 0.7645435094236485 0  3.047822985053062 0.4701848030090332 0  2.577177014946938 0.4701848030090332 0  4.672792740482199 0.76513671875 0  4.922822985053062 0.5298151969909668 0  5.390593497949761 0.5156244924311331 0  5.610292740482199 0.76513671875 0  3.516602579752604 0.5 0  4.45496853898097 0.4865915990446593 0  5.85753146101903 0.4865915990446593 0  3.749511210123698 0.23486328125 0  3.983397420247396 0.4999999999999999 0  2.343497975411212 0.2346270081980111 0  4.219002024588788 0.2346270081980111 0  0.703125 0 0  2.8125 0.2343755075688669 0  3.046875 0 0  2.578125 0 0  3.515625 0 0  3.984375 0 0  4.453125 1 0  5.390625 1 0  2.109375 0 0  2.109375 1 0  5.625 0.2921402030705575 0  5.390625 0 0  7.265625 0 0  6.796875 0 0  6.328125 1 0  3.046875 1 0  2.578125 1 0  3.984375 1 0  3.515625 1 0  4.453125 0 0  4.921875 0 0  5.859375 0 0  0.703125 1 0  1.171875 1 0  7.265625 1 0  4.921875 1 0  5.859375 1 0  0.234375 0 0  6.796875 1 0  6.980310975276531 0.2285890127127066 0  5.149170481934885 0.772689292163473 0  3.274170481934884 0.2273107078365268 0  6.101334126790364 0.7722468376159667 0  4.678005340872584 0.3000799877067239 0  2.8125 0.6921051326382495 0  3.75 0.6921051326382495 0  0.3515624999999999 0.8134571721668546 0  0.4990405774417521 0.4070099317153735 0  0.1789273931360182 0.625 0  6.31239060814315 0.5298877111157968 0  6.456979773992304 0.1917956348713352 0  6.699870808919271 0.4406293402777773 0  1.337539480965883 0.7944303676599538 0  6.058675797563041 0.2019812164653516 0  0.8203125 0.1643029084422534 0  0.1480856513011711 0.375 0  1.090769294689562 0.1719186776982972 0  7.291088163206459 0.5 0  7.094502414936563 0.5197902199074071 0  0.6046212059042245 0.5730066483871106 0  1.707231580809486 0.6342709161352207 0  1.685961352504593 0.8193269193390785 0  1.374721602852827 0.4600373025865813 0  6.486415510043844 0.5916440776477192 0  1.5234375 0.1508863828685116 0  1.707925830421689 0.3657739208189008 0  0.1674513225045584 0.8278776664019765 0  7.138268756771176 0.1438183366439137 0  7.1484375 0.8616388888888887 0  7.328562530764119 0.819498462930605 0  4.101073710123698 0.3678637200736647 0  1.693878467219965 0.1911955120941053 0  1.577566745468488 0.5110082404081502 0  6.6796875 0.8653871806883484 0  6.498039504430512 0.825568433346395 0  0.7562556668576472 0.8333197949571929 0  4.101045914668806 0.6255195807449272 0  5.030745188395182 0.382829047309028 0  2.476364945868651 0.6095868094762166 0  2.729359843907322 0.8460525663191247 0  2.9296875 0.8740763101564099 0  3.163518307559356 0.6254622797994247 0  3.666859843907322 0.8460525663191247 0  3.8671875 0.8740763101564099 0  4.8046875 0.12592368984359 0  3.14936031382311 0.8606990583876851 0  2.4609375 0.8747622921397776 0  5.023140791101972 0.1392266772452574 0  0 0.125 0  0.1759922923594607 0.1727589856739889 0  4.5703125 0.125 0  7.327755777818006 0.1766156770456191 0  5.5078125 0.125 0  5.719712725029036 0.1460701015352787 0  4.327848962028002 0.3674169956512513 0  5.982681121544351 0.3692637923021713 0  3.398926289876302 0.6245417594909667 0  5.281756792511996 0.3827993367299961 0  2.226822645963271 0.6252438868405666 0  2.234390064317166 0.8676616584526566 0  5.2734375 0.125 0  1.96796875 0.382568359375 0  2.234651037971999 0.3674169956512511 0  1.984114583333333 0.132568359375 0  1.9921875 0.875 0  1.984114583333333 0.632568359375 0  5.748733794462357 0.8678269127183313 0  3.3984375 0.875456329184688 0  1.512925924995415 0.8582958012121853 0  1.359299372802969 0.6275861864990343 0  4.810521420483513 0.4041767793635395 0  0.2996213306116602 0.455339710363317 0  5.999933717403708 0.6388425470751088 0  5.250033449003657 0.6388713364551682 0  3.631676045992918 0.3525406652400928 0  4.3359375 0.8816499670325881 0  4.343577437052484 0.6116511299909198 0  3.375033449003656 0.3611286635448316 0  5.763152151652243 0.6249404690537395 0  4.549347848347757 0.6249404690537396 0  5.5004588702411 0.6403667365776566 0  5.976118394847484 0.8816230218343086 0  5.054722486865804 0.6338007028640954 0  3.164542163493752 0.3520519332736524 0  2.445407482032355 0.3672168403687257 0  4.8046875 0.882568359375 0  4.1015625 0.117431640625 0  2.4609375 0.117431640625 0  2.695556894938151 0.3520510350344335 0  2.929443105061849 0.3520510350344335 0  3.881979231817319 0.3670559016511187 0  3.8671875 0.117431640625 0  4.805389247695744 0.6470047893641744 0  3.399370721942191 0.1184066543556767 0  5.274370721942192 0.881593345644323 0  3.618253274934649 0.1316869186284249 0  2.6953125 0.1171877537844335 0  2.9296875 0.1171877537844335 0  2.21873344389451 0.125 0  4.3359375 0.1171877625080073 0  0.6659898565672709 0.3986593551313873 0  7.363359022954956 0.3481046411219251 0  7.363359022954956 0.6518953588780749 0  5.487719392831826 0.3828237631077121 0  2.695054578344725 0.5809158475691247 0  2.944553877887707 0.5964065668438148 0  0.3515625 0.1201898858097106 0  5.5078125 1 0  4.5703125 1 0  5.031746201297604 0.882568359375 0  3.1640625 0 0  6.2109375 1 0  6.186845385763124 0.6336356480571081 0  4.1015625 1 0  6.810399074069772 0.6495574751396682 0  0.4740615253480797 0.2509287743856873 0  7.052064303830151 0.3684417917792242 0  6.195177069665382 0.1216488332168849 0  5.72300154718324 0.4112068202852788 0  3.879157465495092 0.6111892850691246 0  3.645760045247695 0.5809158475691247 0  6.868257400485771 0.3427840810237202 0  6.612030892260864 0.1521752713064389 0  6.615666885941117 0.3151079644097221 0  4.04296875 0.8633718902669071 0  1.183031453639096 0.8486801864185936 0  6.9140625 0 0  6.859079526500421 0.1398292786950638 0  6.808232443325651 0.7957411753922057 0  6.9140625 1 0  4.544955211100143 0.3675874343205077 0  1.0546875 1 0  6.122060236165557 0.3316791557072867 0  0.5859375 0 0  5.9765625 0 0  5.44921875 0.870984788733638 0  4.51171875 0.870984788733638 0  0.7608354256382215 0.2931261274224557 0  6.386875332239937 0.3156583003094978 0  6.985654756850997 0.6147408423643147 0  6.223797257919172 0.8535621912121121 0  5.936822413218736 0.1338376546337823 0  6.23933008800134 0.4095573603773768 0  0.5414022462152697 0.1305482677949959 0  6.331360438104348 0.1370086318183389 0  0.956404929269873 0.1374266563647954 0  1.2890625 1 0  0.691305981127761 0.6764829884281737 0  3.531251607241209 0.8678916320952239 0  2.59787442813022 
[...]
<PointData  Scalars="f_71633"> 
<DataArray  type="Float64"  Name="f_71633"  format="ascii">1.0567842064961963e+00  8.7971662693746266e-01  0.0000000000000000e+00  0.0000000000000000e+00  -5.6691868768170661e-01  -8.7083251533578099e-01  -1.1033256216740728e+00  -1.0882283995950501e+00  -9.8633152471135066e-01  -9.0417124605179644e-01  -8.7727712243361855e-01  -9.1414389320914724e-01  -9.8183525528544946e-01  -1.1008263425151825e+00  -1.2958426509111138e+00  -1.5360568545576634e+00  -1.6868606932707595e+00  -1.6805728192194296e+00  -1.3940568649782328e+00  -9.4502130076524860e-01  -3.0953566851383135e-01  3.7290390477756269e-01  1.0069094224123669e+00  1.5695043708827534e+00  1.9371411466346453e+00  2.0839814674680519e+00  2.0001417852530627e+00  1.7251405754377278e+00  1.3021749897504180e+00  8.4035240485283125e-01  3.6240856329506715e-01  -6.1861275301979164e-02  -3.6700938698084951e-01  -5.4752506876984253e-01  -5.9485172986744073e-01  -5.1901492868193921e-01  -4.0762467892570747e-01  -3.2153404119998696e-01  -2.8033167561103428e-01  -2.7241142351327347e-01  -2.6929357203144622e-01  -2.9629725501409204e-01  -3.5828768905237074e-01  -4.1742827852530717e-01  2.1859732631021442e-01  4.6699257761371987e-01  2.8267837544767305e-01  3.0461170450486230e-01  1.8346580614880945e-01  5.3209328540295431e-01  3.1396816506075370e-01  -3.8736692484112545e-02  5.3045368562065665e-01  5.8415019788929590e-01  -4.1979922001656711e-01  1.6913294087241129e-01  2.9622060576106263e-01  3.7344740492283551e-01  -1.6291103912194504e-01  4.5537072087825252e-02  -4.7403446016961193e-01  -1.3210884123305160e+00  -1.0662677006804231e+00  5.7420225377917433e-04  0.0000000000000000e+00  -5.2991063728208485e-02  -3.9824880258983203e-01  1.0005612999689610e+00  8.3819938849723663e-01  -7.3023150468284215e-01  -8.6252245658013829e-02  4.9238038680744201e-01  -6.4107237696171982e-03  4.7119598581515276e-01  -1.3111028669359612e-01  5.0381037689705421e-01  -1.1931328193788558e-02  5.1357968774085816e-01  2.2114532752600827e-01  -1.2784169551408414e-01  -1.9178411717996091e-01  -9.5351647543992349e-02  -6.9024594472422901e-02  4.0032097141908835e-01  1.0347690295324452e+00  -1.3752191940418296e-01  5.0619747341904087e-01  1.1226292646290228e+00  -1.0599173734648631e-01  1.4025410386087273e-01  -2.3854492925146034e-01  1.9163341838446366e-01  -7.5656635052733334e-01  6.5207333833234782e-01  4.7553672042957346e-01  2.4728498461927745e-01  1.5657321444007066e-01  -5.3233485071862596e-01  5.4443875870886094e-01  2.1889985057005021e-01  9.0211393417799390e-01  -2.9770989269557840e-01  4.8438138896070720e-01  -4.5169409664300264e-01  4.7762525484244522e-01  -6.5597754514463058e-01  5.4087569776429256e-01  -8.5738956002536781e-01  -3.1978704619943588e-01  2.7624400607048905e-01  1.0956377416391601e-01  7.3634550918705048e-03  4.9661720259916420e-01  -8.3196992693500083e-01  2.2314930721339868e-01  9.3207664271005952e-01  2.1703973421478881e-01  8.3014120721965279e-01  1.0519581236328128e+00  1.2632995003348363e-02  1.0495183946670388e+00  2.7673076419602771e-01  1.1265628352865458e+00  3.7470477176919603e-01  -1.1899067641976421e-01  -9.4943283480204560e-02  -6.1635466522423377e-01  0.0000000000000000e+00  -8.4291659595790758e-01  0.0000000000000000e+00  -1.1670219755552021e-01  -4.5912789268753607e-01  -3.4261907710642647e-01  -1.0857665605687701e+00  5.0884243212446612e-01  -4.2701302506446909e-02  -1.0423654438930910e-01  -2.6807143606022649e-01  7.5884597574707210e-02  2.3059743387333451e-01  -6.4222938725161061e-01  -7.1360934716986058e-01  -1.1022652190185784e+00  -1.2261947208466868e+00  -1.2803604429065543e-01  8.6101526981568643e-02  2.0220800127559352e-01  2.9509273743717906e-01  2.7998378950513070e-01  6.6926602579093353e-01  -4.1974063710172355e-01  3.4519424262723886e-01  2.2500503589487228e-01  5.1463865116381557e-01  5.7777378057863558e-02  -1.2488337591998271e-01  -1.0996969986195569e-01  6.1633047147074749e-01  -7.0381888271902171e-02  3.2547868119816981e-01  3.6043451556661488e-01  -1.5265418595473085e-01  2.6049411237745096e-01  2.7074671486832252e-01  3.4929799705961151e-01  4.0606837261973727e-01  5.7693330843049762e-01  7.0838671347577306e-02  6.0374789986551436e-01  -1.7985161799174687e-01  1.6042608564741229e-01  9.6697415847418811e-01  1.3199810218884150e-01  7.0178951912729315e-01  4.7250798726141324e-01  3.8727751780943165e-01  8.7754224003497794e-01  6.1306214399909111e-02  -1.4510854948844631e-01  4.3181486767959731e-01  2.3790317901173652e-01  5.5309199742377724e-01  -1.5564361419287662e-01  5.7576697846648306e-01  5.2962209365138335e-01  1.0558879640001990e+00  1.1026690101333410e+00  1.0477992360257355e+00  -8.0752643546415273e-02  3.5737028237408686e-01  -3.2022134461526092e-01  -3.0610451049172753e-02  -3.1343777064825085e-01  4.1060003209042328e-01  9.5483691343660582e-01  -2.5552927149128224e-01  -7.8280796954286955e-02  3.4214833867393088e-02  1.4174494686266812e+00  3.0646022430393810e-01  5.9804215207419065e-01  -1.9622203084081566e+00  -6.3149731155245614e-01  -1.4922874386386301e-01  -1.6424777836527152e-01  1.0557687757537488e+00  -3.0424776898511297e-01  7.2338600026045397e-01  4.0550230779519564e-01  -1.5913113920412045e-01  -1.3028906524307366e-02  -1.2502016190125892e-01  -3.3485021050490354e-01  -2.7576489685142519e-01  9.2439451149427410e-01  2.1057870910841781e-01  -2.3058492005694542e-01  -1.2256479004395355e+00  6.1048731891764563e-01  5.2628489472125495e-01  -4.4586860074611046e-01  3.7777736951094965e-01  5.7444411596646694e-01  -5.4414964024646240e-02  2.8994667254757259e-02  9.2291232047878605e-02  -4.1105894633667400e-01  8.8123829505015927e-01  8.8704790268209932e-01  3.5863365092869037e-01  -2.6715589915841531e-01  5.0638411122254678e-01  4.3444274337190691e-01  -3.3866264602001234e-01  -2.1113117830421599e-01  -2.0546135008381872e+00  -9.4588024498143505e-02  -1.6050410416694481e+00  -3.0584504639906296e-01  1.0436828934764780e-01  -5.7520715742342532e-01  -1.2481494116055028e-01  5.0168508208441032e-01  1.2079080971639240e-01  -1.3658316898764683e-01  1.5397666474402200e-01  -3.1263799684928373e-01  4.1599529381017225e-01  -7.0113568910870394e-01  -1.4262654680320444e-01  1.0252475065687898e+00  3.6064607302270013e-01  -1.9242366307326050e-01  -1.2767530544801886e-01  -1.7208191338200943e-01  -1.2371172188507089e+00  -3.4462309481181141e-01  -4.5174868356129855e-01  -9.3597932648047510e-01  -1.2244613515024065e+00  5.4006798457029315e-01  4.4572937679753522e-01  -1.1305092368251894e-01  -1.8669717818246490e-01  4.5333676896088754e-01  2.0431946984715579e-01  3.8415285376078218e-01  -2.2469201495764637e-01  -1.3478688083616652e-01  -2.4413573732706742e-01  -7.1560803958320386e-03  3.2866626057546688e-01  4.5272704796388225e-01  1.6415211378457170e-01  3.7717610302864213e-01  -9.3929287309838308e-02  -3.5562079858399148e-01  5.8595963585244959e-01  5.9958781455668764e-01  1.1912150665832144e+00  -2.4098303428122514e-01  1.6940516505099670e-01  -2.1676936687819945e-01  3.7599967546905116e-01  2.3694448579330990e-01  8.7074261988913482e-01  -2.4428847506437826e-01  3.7351181626471615e-02  4.6995963232056281e-01  5.0779547381007739e-01  4.3891302988287562e-01  2.7703603023418966e-01  4.8398806191750093e-01  -5.2485862196952737e-01  9.1096782571294777e-01  -2.2403738090645253e-01  1.9475390349587562e-02  -1.3704131850048293e-01  5.2505778190181507e-01  -1.9926243345989431e-01  -2.4700464411624119e-02  3.2464513430567321e-01  1.0469870913148761e-01  5.5493016950792007e-01  -5.9719801792693455e-02  8.6687524592220927e-02  1.8983690288094421e-01  -1.8406779432442952e-01  3.5484737802652050e-01  -2.2394599978887744e-01  2.4086130615914822e-01  -2.9246507996383692e-01  7.9278465176426027e-01  -2.2774066850825548e-02  -3.6374458725999770e-01  -1.9277398794095119e-01  6.3007595493008894e-01  1.1828892187584009e-01  2.3290494999045086e-01  4.5441627062308404e-01  -3.4225459961388094e-02  -6.4505176911858197e-02  8.2695939886691860e-01  2.0390275847049730e-01  7.4853643981436388e-02  1.7065768456793542e-01  1.3990964358503686e+00  1.4928689978743756e-02  4.6283686346890091e-01  1.5237576587925086e-02  1.4301017368279217e-01  3.6002704322735773e-01  1.1106859990733384e+00  1.0461414793117323e+00  4.9760810006986972e-01  4.4204614786441032e-01  -8.1009188250174136e-01  5.3138387918068042e-01  -2.1317889246262781e-01  5.7869072962511092e-01  5.9691523760370546e-01  1.0204682345120542e+00  1.4413009445943106e-01  1.0613281534221626e+00  -8.7511704888722763e-01  1.0137565955441799e+00  -2.1847133474406571e-01  -2.1968285914238880e-01  7.1641224541843601e-02  1.6186641574123577e-02  -7.1977248174409780e-01  2.0883488187393159e-01  -4.5034223935114787e-01  -1.0058824446721748e+00  -1.2233756310498249e+00  0.0000000000000000e+00  0.0000000000000000e+00  1.0562793664921259e+00  9.4934267364098091e-01  1.0358788831020744e+00  0.0000000000000000e+00  0.0000000000000000e+00  2.2108018898591777e-01  -2.7841397700279286e-01  3.7712892436813722e-01  -1.0728128225271336e+00  -9.9225968491595384e-01  2.9317289093403059e-01  8.7925914889181156e-01  -2.0177961219538487e-01  6.7681272363587475e-01  3.1114891171933234e-01  -2.2604307893050743e-01  -5.8019409195265603e-01  -6.4474471978146053e-01  9.1851570724877409e-03  -1.5933382840354476e-01  1.3392619094929389e-01  -2.0140969860434081e+00  -3.9567942568584369e-01  -2.1131164864624005e-01  -9.0065952423177198e-01  -1.0584701690007244e-01  1.0542064014790440e+00  1.0115793180994936e+00  1.2419306182408561e-01  3.4829478199774172e-01  2.5886890643605692e-01  -3.6776862576038322e-01  1.2178025641273248e-01  -1.1739597696997670e+00  -4.6710736359956005e-02  -9.1118276515758534e-01  -6.4090302766185403e-01  -6.5621960832795045e-01  2.8544960695819405e-01  4.0724618350234626e-01  -2.0662048275735659e-01  4.0597412151487078e-01  -1.3588187232282467e+00  -5.8661436784778406e-02  -1.3320275676746307e+00  -1.5367355993026075e+00  -1.5997408155827017e-01  -8.2147818606003664e-01  -4.2142390970670407e-01  1.4996247670845725e-01  5.0567211169797099e-01  -9.1249832017504112e-02  9.5013112065280101e-03  8.9042373438149136e-02  3.1326096461761557e-02  -9.1315682370518891e-01  -1.8272074605525121e-01  2.4759926369381483e-01  -8.5991231255607947e-01  -5.2396445757268706e-01  -7.4346054752969223e-02  -1.8911851912583053e-01  2.4568581003357647e-02  -7.5649496982575282e-01  2.1052443386618028e-01  -2.4398411850875626e-01  -9.0700619281706973e-01  6.1905481886667812e-01  5.2668949371226771e-02  3.5369075052082671e-01  5.0432639708526739e-01  2.9433258366222320e-01  4.0931620651266010e-01  5.6591489632259506e-01  2.2419432346196985e-01  -2.5260059189594508e-01  -2.3203265084260771e-01  2.6169475927390734e-01  5.2932977098018574e-01  8.9631781699476526e-02  8.6544432957496364e-01  5.4696686304970910e-01  6.0828464635434454e-01  -6.2775779519314101e-01  -1.5068607196647266e-01  2.5383056813972783e-03  4.4135340316102378e-01  -8.1509642004773994e-02  5.8747584148040995e-02  4.0882336244843004e-01  2.8139098462995493e-01  4.6370388899224646e-01  -1.3752544205850240e-01  3.2441499073736668e-01  -1.5105371076420454e-01  3.2037505751390161e-01  1.3119748567436343e-01  5.6636454693536398e-01  1.6410205512258286e-01  -2.0068724262847695e-01  4.3037214628698017e-01  3.6871343943060164e-01  4.2869985391167847e-01  4.5010082686798319e-01  -2.6884407597071863e-01  1.3300302042317949e-01  6.5338960963236326e-02  2.4978056732320255e-02  5.2895146060079690e-01  3.8612574397996441e-01  4.8910720792321838e-01  5.5382306291066241e-01  -1.7555603560678470e-01  -1.8737221125146705e-01  -1.3347092969184873e-01  4.9091260125974659e-02  4.8696715999973950e-01  2.7907877898624484e-01  1.0430215291153320e+00  6.3549339016152928e-01  1.8320672701814436e-01  1.0200488638385267e-01  4.1380439491763565e-01  5.5318530987621461e-01  4.3568331518376419e-01  8.0017574434114358e-01  -1.0701285854624250e-01  3.9263495633808976e-01  8.4759721459779114e-02  -6.4748738353302560e-01  3.6991773104148402e-03  -2.5627941476226918e-01  -2.0302005737267026e-01  -3.0405099702721616e-01  -1.1523249095045358e-01  -8.0262986484026438e-02  -3.9024786787638055e-01  3.3057094484301186e-01  1.9287100006228100e-01  1.6169562721236891e-01  -1.1698393585471382e-01  -6.6644786060602956e-01  -3.3700090957886469e-01  -1.4236510940026575e-01  5.3273092016246870e-01  4.8188540555257042e-01  4.6964531530707571e-01  4.4435354315262338e-01  3.8774847893471570e-01  4.2712243309372322e-01  2.0641139172661416e-01  3.3195950843860747e-02  5.1604475555965745e-01  -1.1304041911331324e-02  -8.2307176886689357e-02  -2.0577369274532445e-01  3.7371997172959442e-01  -1.6318828734097460e-01  -3.3877736405875986e-01  4.0804143219475747e-01  4.1737530476268131e-01  6.0504685942284098e-01  4.6040360634578553e-01  3.3209713496984888e-01  1.4303762687250321e-01  6.4333582563041214e-01  5.3054832865754809e-01  -3.1090038160845002e-01  2.6832468453922825e-01  3.2483143164776206e-03  3.5417665100460204e-02  6.1698088744532587e-02  -5.2449036850392518e-02  1.0484250825863977e+00  3.2466464095188369e-01  4.8544299408357916e-01  -2.2791052154673785e-01  2.5298678051793094e-01  3.2464039062473882e-01  -1.5964397589411231e-01  1.0209606217583058e+00  1.0473442847930328e+00  1.0718779341393547e+00  -3.4215300725420317e-01  2.3832209349314956e-01  -5.8129299441484938e-01  1.1010013167297337e+00  1.0070664009464483e+00  9.9236936225316974e-01  2.6559775519394979e-01  2.8842604245183712e-01  6.0228052701764323e-01  5.7710165969323535e-01  -2.8925456600930133e-01  4.9166400024838541e-01  4.8094000478675719e-01  1.2307703475235665e+00  1.2228580569856162e+00  5.8384741541484231e-01  1.1136831022521561e-01  -8.7215480560076525e-02  -4.1982875967150146e-01  -1.4457367054476680e+00  -1.4909217503335337e-01  1.9760546815199809e-01  1.4817378102765288e-01  -3.6634070092233617e-01  1.0317265368169913e-01  -3.2955694155896931e-01  -1.4282180446477455e-01  -1.3805757474889992e+00  -1.0235373934840337e-01  1.6330552139484866e+00  -1.8252115048572137e-01  -2.9827758445637004e-01  7.2561493926643669e-02  9.1376109396238536e-01  9.1309610781471773e-01  9.6759365132178710e-01  1.7069662426862856e-01  -2.2507005584877390e-01  -5.3797237227930277e-02  1.8591658917938118e-02  8.8949901292477840e-01  -8.5728999190871735e-02  -5.7199872412173491e-01  -2.8411959255137453e-01  -2.6021945635631349e-01  -4.3690821405989594e-02  -6.0920583602310963e-01  1.2830677233076613e+00  4.9108685661798085e-01  1.0846114574399566e+00  -1.6472637372874466e+00  -1.2883981679132352e+00  -5.9016360151850911e-01  3.7400079502509065e-01  -9.1921804090697584e-02  5.6233115598437011e-01  4.9760547781959713e-01  1.0404274240855367e+00  9.8525329677491791e-01  3.3692871064100227e-01  -3.0163102560442075e-02  -2.4242474487293977e-01  -5.5165025511849997e-01  -3.2166401451747140e-01  -4.7771726219452998e-01  -3.2587105991508508e-01  1.6364689149645681e-01  1.2099622932649538e-01  8.7667458729774805e-01  4.7555926791895797e-01  4.6983838970297892e-01  2.6892484199876544e-02  3.9209709990161390e-01  -1.4588875445733882e-01  -8.2789173321792697e-02  8.4780290576182815e-01  -9.8513669014813218e-02  1.2537807382867323e+00  1.4294096574595383e-01  3.0243986253314215e-01  -3.0489371365400531e-01  1.8100871818087882e-01  -5.3577816825759073e-01  4.5344406822724942e-01  2.7845965341363556e-02  -1.0852060815444879e-01  7.3883186735380169e-01  4.4664320359831650e-01  6.8347396609521116e-01  1.0698669679351611e+00  1.0524927399704909e+00  1.0548125480352468e+00  -3.5872048146980207e-01  2.7565020037921195e-01  -1.2892046143153868e-01  4.7011894265430321e-01  8.8144851568685578e-01  3.0861615137601508e-04  1.0559669226297772e+00  -1.8469371538840096e-01  -7.7341886181132680e-01  5.8916051375609169e-01  2.7090383814354907e-01  8.9050675588379180e-01  6.1636445039914911e-01  1.3882271805555813e-01  -1.6607460772106136e-01  4.1035095902086233e-01  -1.1665458356076541e-01  -2.1657302552346044e-01  -1.2404444255996777e-01  8.8035946202816462e-01  1.5368448547359981e-01  3.3384875463163835e-02  8.9608106278812150e-01  2.6846157343079036e-01  1.1099439012106260e+00  2.8501330258551133e-01  -3.1418512635574097e-01  1.4397838353987879e-02  -4.3241989172239947e-01  -1.3894472225982006e+00  6.7477329752061743e-01  -5.4422777153796276e-01  -2.0672336891182372e-01  -2.2593585390850343e-01  -4.2356031387392599e-02  6.4291484510084052e-01  -4.0444944748806566e-01  5.7794657646418823e-01  9.6414286337693089e-01  -1.5217051380717875e-01  6.2579212464843470e-01  6.2963989702219517e-02  6.4660894828060778e-01  3.0232588488354234e-01  1.2802509760606449e-02  2.2100102744977537e-01  3.7165256757789189e-01  3.3433780472300656e-01  -7.3372724025787139e-01  -3.1936473043666075e-01  5.5528395709554978e-01  2.1359390387378283e-01  2.6913036772718812e-01  1.6846272059981730e-02  2.7985129715730833e-01  3.9490556145227490e-01  4.4804794857762509e-01  5.3103030111859330e-02  -3.4180801087518786e-01  -3.7251253890411923e-01  -3.8185726677843529e-01  2.5158243123310381e-01  -8.3116701006080684e-01  -1.6125509088947225e+00  -8.4716031661991695e-02  4.3131938637266420e-01  4.4557094379438983e-01  -1.3834729017623942e-01  1.0708059796622131e+00  -1.6633547516514895e+00  -1.1783482087362349e-01  -4.0402970544698452e-01  -4.5096518255270779e-01  -5.4716895464217596e-01  2.3526218174312055e-01  8.2186402050645591e-02  -1.4227874883891522e-02  -2.4788168396861723e-01  -1.5041469807640692e-01  5.6543513782825439e-01  -1.2660149472031967e-01  1.8246277768262051e-01  -4.9220846242785632e-01  -3.7703703050989207e-01  -6.7458088485482970e-01  -6.0369597786539386e-01  3.8167211423868053e-01  -5.4206287020663346e-01  -3.4657173663798979e-01  8.0946252699944210e-02  -7.5016712614505521e-01  -1.0127664989325826e-01  -2.4454217766214756e-01  -8.2696798319067844e-02  -2.9702302538336967e-01  2.7385949707401580e-01  -2.7502207745094365e-01  -7.1675991750151380e-02  -1.8567671376319159e+00  -1.5918811093354404e+00  -1.7155316143281221e+00  -9.0601249657886451e-01  -1.8093376593567725e+00  -1.7349376734443429e+00  1.6818251823140715e-01  3.7766346812694973e-01  3.0065948133224198e-02  4.6052900555904641e-01  -2.3280043895269133e-02  2.8813284005251073e-03  -2.5593415885677234e-01  -2.7820760165098740e-01  -6.0721579265988168e-01  -7.2182823160498427e-02  -2.6454819938439289e-01  -2.2273775708558283e-01  1.0270408165649214e+00  -5.9124536024562280e-01  1.6508498102911908e+00  -1.6428127126071237e-01  -2.8779127013146860e-01  -2.0212025106397191e-02  -5.4034959443910835e-01  1.0469330399710336e-01  -8.5213388198418927e-01  1.5418916385787620e+00  -1.5183550466177215e-01  1.4133498736957244e+00  -9.1101968961583746e-01  -7.5985151055005928e-01  -1.2916069292596073e+00  -8.4909081710294376e-01  1.9089376717185718e+00  -3.5423725419038160e-01  5.9650496887485349e-01  -2.5588399934593331e-01  5.9117754048356237e-02  -7.5973966583586405e-01  -1.0348406622293780e+00  3.7914888989715720e-02  1.2430046759716158e+00  -2.6102835639172250e-01  -2.8640602881532884e-01  1.7605880436193149e+00  9.6879520576881084e-01  -6.9654962799907805e-01  -4.6793861874455900e-01  -6.2484237182465163e-01  -9.9927624548388849e-01  -7.6539079561842926e-01  -1.1089494369633448e+00  -1.1260215753525615e+00  -9.1026271875083453e-01  -1.0356802887136076e+00  -1.1074900589088648e+00  -9.7514036819478511e-01  -9.4141447646573018e-01  -9.3462190043852134e-01  -8.8179954379009995e-01  -9.0183833744560005e-01  -8.9124000737744791e-01  -8.7062631356302467e-01  -8.8010625878469728e-01  -9.4353401883636823e-01  -8.8968072551485156e-01  -9.5368531993975436e-01  -1.0333161339190611e+00  -9.8817095772306562e-01  -1.1907335010654563e+00  -1.0320636310786242e+00  -1.2141309063826817e+00  -1.4133131971485156e+00  -1.2832060587390748e+00  -1.5963676220870577e+00  -1.3484132759737504e+00  -1.6471777198111481e+00  -1.2799664410412659e+00  -1.4127366933419523e+00  -1.5078883210451077e+00  -1.2274813863023071e+00  -1.1157276989460958e+00  -5.68956151596370