<?xml version="1.0"?>
<VTKFile type="UnstructuredGrid"  version="0.1"  >
<UnstructuredGrid>
<Piece  NumberOfPoints="4269" NumberOfCells="8234">
<Points>
<DataArray  type="Float64"  NumberOfComponents="3"  format="ascii">0 1 0  0 0 0  7.5 0 0  7.5 1 0  1.197537668119028 0.5812868930080463 0  1.2 0.55 0  1.197537668119028 0.5187131069919538 0  1.190211303259031 0.4881966011250105 0  1.178201304837674 0.4592019000520907 0  1.161803398874989 0.4324429495415054 0  1.141421356237309 0.4085786437626905 0  1.117557050458495 0.3881966011250105 0  1.090798099947909 0.3717986951623264 0  1.06180339887499 0.3597886967409693 0  1.031286893008046 0.3524623318809725 0  1 0.35 0  0.9687131069919538 0.3524623318809725 0  0.9381966011250105 0.3597886967409694 0  0.9092019000520906 0.3717986951623264 0  0.8824429495415054 0.3881966011250105 0  0.8585786437626904 0.4085786437626905 0  0.8381966011250105 0.4324429495415054 0  0.8217986951623264 0.4592019000520907 0  0.8097886967409692 0.4881966011250107 0  0.8024623318809725 0.5187131069919539 0  0.8 0.55 0  0.8024623318809725 0.5812868930080463 0  0.8097886967409693 0.6118033988749896 0  0.8217986951623264 0.6407980999479095 0  0.8381966011250105 0.6675570504584947 0  0.8585786437626906 0.6914213562373096 0  0.8824429495415054 0.7118033988749896 0  0.9092019000520907 0.7282013048376736 0  0.9381966011250106 0.7402113032590307 0  0.9687131069919539 0.7475376681190276 0  1 0.75 0  1.031286893008046 0.7475376681190276 0  1.06180339887499 0.7402113032590307 0  1.090798099947909 0.7282013048376736 0  1.117557050458495 0.7118033988749896 0  1.141421356237309 0.6914213562373095 0  1.161803398874989 0.6675570504584947 0  1.178201304837674 0.6407980999479094 0  1.190211303259031 0.6118033988749896 0  3.75 0 0  3.75 1 0  1.875 0 0  1.875 1 0  0.9375 0 0  0.9375 1 0  1.40625 1 0  5.625 1 0  5.625 0 0  2.8125 1 0  2.8125 0 0  4.6875 0 0  4.6875 1 0  6.5625 0 0  6.5625 1 0  5.15625 0.5 0  4.21875 0.5 0  2.34375 0.5 0  3.28125 0.5 0  6.09375 0.5 0  7.5 0.5 0  6.897916666666666 0.5 0  1.842708333333333 0.5 0  0 0.5 0  0.46875 0 0  5.625 0.5302734375 0  7.03125 0 0  6.09375 1 0  2.8125 0.4697265625 0  3.28125 0 0  2.34375 1 0  2.34375 0 0  3.75 0.4697265625 0  4.21875 0 0  4.21875 1 0  4.6875 0.5302734375 0  3.28125 1 0  5.15625 0 0  6.09375 0 0  5.15625 1 0  0.46875 1 0  1.40625 0 0  7.03125 1 0  0.3954638734376499 0.5975780249976004 0  6.495833333333334 0.4072265624999998 0  5.859375 0.25 0  4.905729166666666 0.26513671875 0  4.453125 0.25 0  3.531770833333333 0.73486328125 0  3.968229166666667 0.73486328125 0  2.594270833333333 0.73486328125 0  3.030729166666667 0.73486328125 0  6.328125 0.75 0  7.198958333333334 0.3125000000000002 0  7.198958333333334 0.6874999999999998 0  5.390625 0.25 0  0 0.25 0  2.109375 0.75 0  2.109375 0.25 0  1.51921323205749 0.3418883887525936 0  1.522346610178253 0.6811769608297746 0  5.375456746419271 0.75 0  4.921875 0.76513671875 0  4.437956746419271 0.75 0  3.984375 0.23486328125 0  3.500456746419271 0.25 0  2.578125 0.23486328125 0  3.046875 0.23486328125 0  5.874543253580729 0.75 0  6.642123189445656 0.6909095493086836 0  6.746354166666666 0.2391688368055553 0  0.3197109619185111 0.2850049285972083 0  6.328125 0 0  0.6313375889370429 0.2351325552547357 0  0 0.75 0  6.252283381534729 0.2693808819694041 0  0.234375 1 0  6.948437500000001 0.7543055555555555 0  0.5934018769555939 0.7694151657947577 0  1.858854166666667 0.75 0  1.858854166666667 0.25 0  1.640625 0 0  2.093229166666667 0.5 0  7.5 0.25 0  3.282227579752604 0.75 0  7.5 0.75 0  1.171875 0 0  1.303539853147731 0.2235426933121065 0  5.148177083333333 0.2575683593749998 0  2.351822916666667 0.742431640625 0  1.640625 1 0  4.202380413457425 0.7645435094236485 0  3.047822985053062 0.4701848030090332 0  2.577177014946938 0.4701848030090332 0  4.672792740482199 0.76513671875 0  4.922822985053062 0.5298151969909668 0  5.390593497949761 0.5156244924311331 0  5.610292740482199 0.76513671875 0  3.516602579752604 0.5 0  4.45496853898097 0.4865915990446593 0  5.85753146101903 0.4865915990446593 0  3.749511210123698 0.23486328125 0  3.983397420247396 0.4999999999999999 0  2.343497975411212 0.2346270081980111 0  4.219002024588788 0.2346270081980111 0  0.703125 0 0  2.8125 0.2343755075688669 0  3.046875 0 0  2.578125 0 0  3.515625 0 0  3.984375 0 0  4.453125 1 0  5.390625 1 0  2.109375 0 0  2.109375 1 0  5.625 0.2921402030705575 0  5.390625 0 0  7.265625 0 0  6.796875 0 0  6.328125 1 0  3.046875 1 0  2.578125 1 0  3.984375 1 0  3.515625 1 0  4.453125 0 0  4.921875 0 0  5.859375 0 0  0.703125 1 0  1.171875 1 0  7.265625 1 0  4.921875 1 0  5.859375 1 0  0.234375 0 0  6.796875 1 0  6.980310975276531 0.2285890127127066 0  5.149170481934885 0.772689292163473 0  3.274170481934884 0.2273107078365268 0  6.101334126790364 0.7722468376159667 0  4.678005340872584 0.3000799877067239 0  2.8125 0.6921051326382495 0  3.75 0.6921051326382495 0  0.3515624999999999 0.8134571721668546 0  0.4990405774417521 0.4070099317153735 0  0.1789273931360182 0.625 0  6.31239060814315 0.5298877111157968 0  6.456979773992304 0.1917956348713352 0  6.699870808919271 0.4406293402777773 0  1.337539480965883 0.7944303676599538 0  6.058675797563041 0.2019812164653516 0  0.8203125 0.1643029084422534 0  0.1480856513011711 0.375 0  1.090769294689562 0.1719186776982972 0  7.291088163206459 0.5 0  7.094502414936563 0.5197902199074071 0  0.6046212059042245 0.5730066483871106 0  1.707231580809486 0.6342709161352207 0  1.685961352504593 0.8193269193390785 0  1.374721602852827 0.4600373025865813 0  6.486415510043844 0.5916440776477192 0  1.5234375 0.1508863828685116 0  1.707925830421689 0.3657739208189008 0  0.1674513225045584 0.8278776664019765 0  7.138268756771176 0.1438183366439137 0  7.1484375 0.8616388888888887 0  7.328562530764119 0.819498462930605 0  4.101073710123698 0.3678637200736647 0  1.693878467219965 0.1911955120941053 0  1.577566745468488 0.5110082404081502 0  6.6796875 0.8653871806883484 0  6.498039504430512 0.825568433346395 0  0.7562556668576472 0.8333197949571929 0  4.101045914668806 0.6255195807449272 0  5.030745188395182 0.382829047309028 0  2.476364945868651 0.6095868094762166 0  2.729359843907322 0.8460525663191247 0  2.9296875 0.8740763101564099 0  3.163518307559356 0.6254622797994247 0  3.666859843907322 0.8460525663191247 0  3.8671875 0.8740763101564099 0  4.8046875 0.12592368984359 0  3.14936031382311 0.8606990583876851 0  2.4609375 0.8747622921397776 0  5.023140791101972 0.1392266772452574 0  0 0.125 0  0.1759922923594607 0.1727589856739889 0  4.5703125 0.125 0  7.327755777818006 0.1766156770456191 0  5.5078125 0.125 0  5.719712725029036 0.1460701015352787 0  4.327848962028002 0.3674169956512513 0  5.982681121544351 0.3692637923021713 0  3.398926289876302 0.6245417594909667 0  5.281756792511996 0.3827993367299961 0  2.226822645963271 0.6252438868405666 0  2.234390064317166 0.8676616584526566 0  5.2734375 0.125 0  1.96796875 0.382568359375 0  2.234651037971999 0.3674169956512511 0  1.984114583333333 0.132568359375 0  1.9921875 0.875 0  1.984114583333333 0.632568359375 0  5.748733794462357 0.8678269127183313 0  3.3984375 0.875456329184688 0  1.512925924995415 0.8582958012121853 0  1.359299372802969 0.6275861864990343 0  4.810521420483513 0.4041767793635395 0  0.2996213306116602 0.455339710363317 0  5.999933717403708 0.6388425470751088 0  5.250033449003657 0.6388713364551682 0  3.631676045992918 0.3525406652400928 0  4.3359375 0.8816499670325881 0  4.343577437052484 0.6116511299909198 0  3.375033449003656 0.3611286635448316 0  5.763152151652243 0.6249404690537395 0  4.549347848347757 0.6249404690537396 0  5.5004588702411 0.6403667365776566 0  5.976118394847484 0.8816230218343086 0  5.054722486865804 0.6338007028640954 0  3.164542163493752 0.3520519332736524 0  2.445407482032355 0.3672168403687257 0  4.8046875 0.882568359375 0  4.1015625 0.117431640625 0  2.4609375 0.117431640625 0  2.695556894938151 0.3520510350344335 0  2.929443105061849 0.3520510350344335 0  3.881979231817319 0.3670559016511187 0  3.8671875 0.117431640625 0  4.805389247695744 0.6470047893641744 0  3.399370721942191 0.1184066543556767 0  5.274370721942192 0.881593345644323 0  3.618253274934649 0.1316869186284249 0  2.6953125 0.1171877537844335 0  2.9296875 0.1171877537844335 0  2.21873344389451 0.125 0  4.3359375 0.1171877625080073 0  0.6659898565672709 0.3986593551313873 0  7.363359022954956 0.3481046411219251 0  7.363359022954956 0.6518953588780749 0  5.487719392831826 0.3828237631077121 0  2.695054578344725 0.5809158475691247 0  2.944553877887707 0.5964065668438148 0  0.3515625 0.1201898858097106 0  5.5078125 1 0  4.5703125 1 0  5.031746201297604 0.882568359375 0  3.1640625 0 0  6.2109375 1 0  6.186845385763124 0.6336356480571081 0  4.1015625 1 0  6.810399074069772 0.6495574751396682 0  0.4740615253480797 0.2509287743856873 0  7.052064303830151 0.3684417917792242 0  6.195177069665382 0.1216488332168849 0  5.72300154718324 0.4112068202852788 0  3.879157465495092 0.6111892850691246 0  3.645760045247695 0.5809158475691247 0  6.868257400485771 0.3427840810237202 0  6.612030892260864 0.1521752713064389 0  6.615666885941117 0.3151079644097221 0  4.04296875 0.8633718902669071 0  1.183031453639096 0.8486801864185936 0  6.9140625 0 0  6.859079526500421 0.1398292786950638 0  6.808232443325651 0.7957411753922057 0  6.9140625 1 0  4.544955211100143 0.3675874343205077 0  1.0546875 1 0  6.122060236165557 0.3316791557072867 0  0.5859375 0 0  5.9765625 0 0  5.44921875 0.870984788733638 0  4.51171875 0.870984788733638 0  0.7608354256382215 0.2931261274224557 0  6.386875332239937 0.3156583003094978 0  6.985654756850997 0.6147408423643147 0  6.223797257919172 0.8535621912121121 0  5.936822413218736 0.1338376546337823 0  6.23933008800134 0.4095573603773768 0  0.5414022462152697 0.1305482677949959 0  6.331360438104348 0.1370086318183389 0  0.956404929269873 0.1374266563647954 0  1.2890625 1 0  0.691305981127761 0.6764829884281737 0  3.531251607241209 0.8678916320952239 0  2.59787442813022 
[...]
<PointData  Scalars="f_71633"> 
<DataArray  type="Float64"  Name="f_71633"  format="ascii">7.3848772911614835e-01  5.8963012421951244e-01  0.0000000000000000e+00  0.0000000000000000e+00  -5.4752825942078776e-01  -6.3957523738953392e-01  -8.4313823489228712e-01  -1.0673420287135169e+00  -1.1843585331822937e+00  -1.2204834212753539e+00  -1.2338565506385761e+00  -1.2478776766777473e+00  -1.2745767634888998e+00  -1.3264119110239767e+00  -1.4247123588435036e+00  -1.5670926141440369e+00  -1.6697535880242416e+00  -1.6549494498842379e+00  -1.4058715992173414e+00  -9.9201507502340147e-01  -4.0540732911051469e-01  2.3766087671727432e-01  8.4185780701410640e-01  1.3702872365629026e+00  1.7095027487194907e+00  1.8287288703789575e+00  1.7150593656805699e+00  1.4080553764519621e+00  9.4553450436825170e-01  4.4847762022962218e-01  -7.0149148157047481e-02  -5.3234482514381487e-01  -8.5036814226782664e-01  -1.0109899317436954e+00  -9.9729301329013875e-01  -8.3463758438414604e-01  -6.3833134147438164e-01  -4.9722152982752882e-01  -4.2385143973593004e-01  -3.8837545846022370e-01  -3.6193095948508985e-01  -3.8760904101550031e-01  -4.1904538223922155e-01  -4.7986692912257722e-01  1.0519909776471212e-01  1.0004650708138081e-01  1.6471612415938539e-01  -8.0765977956794244e-01  -2.0923431188830124e-01  3.1598985332256424e-01  -2.1153244938550564e-01  5.0009618028877642e-02  5.0641415357237748e-02  2.0821089199631637e-01  8.0856389260229131e-02  7.7327789198446767e-02  7.3112365948763733e-02  2.2456942276238734e-02  3.5664352087898574e-02  6.4120855574220315e-02  9.0500339813162134e-02  -4.8951675140046591e-01  1.2010770065453939e-01  3.8543717221732991e-02  0.0000000000000000e+00  1.3309876939826685e-02  -3.3592886986678383e-01  6.9753174800059869e-01  5.0620437858985379e-01  5.1322462609304752e-02  8.0488379915065814e-03  4.1991537468862701e-02  9.2508824073252283e-02  1.1470712937624311e-01  -1.4981559844195864e-02  -3.6761869299534300e-01  1.0443099760112386e-01  9.3984507591406710e-02  9.0447062991335175e-02  7.7388367109203424e-02  1.2251212452609241e-01  5.8074814886804070e-02  3.6020408119366944e-02  6.5977779983299206e-02  7.6872364584002773e-01  -6.4172726443902894e-01  -2.5247215375142584e-02  8.2544431941584817e-01  2.4741195537813912e-02  4.5395912026791357e-02  7.1161476175004332e-02  8.2749481719324364e-02  1.1180340228319421e-01  9.7820023655407706e-02  1.1171648484062620e-01  1.3742574708448085e-01  3.0344645351872472e-02  6.9967572777861857e-03  6.0704469943697248e-03  5.8001448439953286e-02  6.1437747583727187e-01  -6.1355383372190309e-01  -2.2713925108117893e-02  -7.3525513824122801e-01  -1.7980154581007322e+00  5.7409152077902516e-02  6.9947200640323851e-02  8.5091281761783460e-02  9.8785960107997117e-02  1.1248383207678082e-01  -6.8920770755335065e-02  1.0960612225136926e-01  4.3678036705184185e-02  2.0863145129292045e-02  1.6416417002691339e-02  6.3292184793216844e-01  3.2133911450199511e-02  5.0000886343406037e-01  7.3393993503453303e-01  3.1118050189468439e-02  7.4224319485974355e-01  8.4779238527394087e-03  8.6649019262114235e-01  -1.1048375088114513e+00  2.6423105883940518e-01  -1.8374246730868521e-01  -5.7347623447585727e-01  0.0000000000000000e+00  1.2354290851515244e-01  0.0000000000000000e+00  -6.4947281512882216e-01  -9.8257409576568999e-01  6.3467160022375568e-02  -2.0710312813375531e-01  -3.0347021001954039e-01  9.1902434284679410e-02  1.1831646873087390e-01  8.7731281858100071e-02  7.6710229449737641e-02  7.1050888149916669e-02  5.8035040597855310e-02  5.0757812901243891e-02  1.1108479617908908e-01  8.3708046161397445e-02  4.5471116476206073e-02  1.0504169787623460e-01  9.6975222269292810e-02  -6.1832238340909929e-01  9.0612030143042893e-02  3.0893912621177289e-01  8.1699242484880294e-02  1.0939805712010449e-01  -5.9699620235366964e-02  1.1212843885394846e-01  9.9461227267190921e-02  8.5255587923714210e-02  5.7377998078572773e-02  1.7113820331657997e-01  -5.5869402948372204e-01  5.2160049966138447e-02  5.4556242657896263e-02  1.0736538479087863e-02  9.0513400637783209e-03  3.3811320232520779e-02  1.4556967643488145e-01  2.3510288169173824e-01  9.4592289327443679e-02  1.1320459946117890e-01  8.5073547551561976e-02  7.0887848556035471e-02  3.8701360888862599e-02  7.4857402713576937e-01  -1.8877783228256295e-01  -1.5728768740958708e-02  6.7060453430435749e-02  4.5555023599293330e-02  5.7736670956057989e-01  5.3079374706910917e-02  1.1707943830511333e-02  6.4064500884539438e-02  1.1576857665257224e-01  3.7950040674954624e-02  7.7462597510318906e-02  4.3046954304608691e-02  1.0374633048051557e-01  7.5731916770206653e-01  8.0506095874622530e-01  7.3655445662735552e-01  3.0688876099049148e-02  1.9327913237282383e-02  1.8361845024087824e-02  -5.9737219749081638e-01  3.7361199634668808e-02  5.6894232096569332e-02  6.6100833540522863e-01  -7.0364773841017447e-01  4.0502874908603798e-04  9.6005543951256291e-03  1.1384708563616110e+00  -1.5554439740165165e+00  -5.7558352985047367e-01  -1.5215413640360234e+00  2.4717667118472762e-02  -4.0805131994091193e-01  6.2343351581493713e-02  7.3826148429652905e-01  3.4197685339257579e-03  -9.4165799436861687e-03  -1.6390822996415731e-03  9.6519767652143332e-02  5.5147047244260977e-02  -1.6286864808743509e+00  2.0268304080953741e-02  2.5541688811818397e-02  6.8112492209356068e-01  9.3974333989504374e-02  6.6560072402203352e-02  1.0689297146823245e-02  1.8052785757804188e-01  1.6344758186432065e-01  1.2676335183333332e-01  1.0621889290600101e-01  1.0107502156492038e-01  7.3437478403944947e-02  1.3115915363947972e-01  1.5487850503242945e-01  6.6670651905795325e-02  5.9179593941574293e-01  5.9652009503278536e-01  8.0138977149837975e-02  8.0552383322792000e-03  5.3972902647810801e-02  4.8165381815998838e-02  8.8484232037811236e-02  4.1301266564987775e-02  1.1740614753697853e-01  6.0480916327206022e-02  -1.1103923882660340e+00  -3.2249583735707105e-01  5.9028450573377252e-02  4.0812298445703971e-02  -5.3070119253887005e-01  2.6498830969792680e-01  -1.0160954472282804e+00  -5.4812681404875441e-01  4.7255412226244478e-02  1.1693421682980915e-01  -5.4689210907662500e-01  -1.4336114173756698e+00  7.3242048893614270e-02  7.2844883387786896e-01  4.1243645653338039e-02  6.2031301005705163e-02  1.0934890482752212e-01  8.5969462463702337e-02  8.7494698251965985e-02  1.1673332686380702e-01  4.7156891587532036e-02  7.9653606246423828e-02  5.4428095135037866e-02  4.1271951108013447e-02  6.6090620921240420e-02  1.1660792152022331e-01  -1.2684393626353480e-01  7.4859236481759184e-02  9.6127195368153590e-02  -2.9438336634817691e-01  6.7982279409775942e-02  1.0271435883968064e-01  1.0222642965370245e-01  1.0198525724550636e-01  7.3345128585991515e-02  1.1525760554734728e-01  6.3745231684675635e-02  1.0941284400637524e-01  3.8099307501385529e-02  9.9916681453242548e-02  -2.0944044332906242e-01  8.7912092083056351e-02  9.0552422915944519e-01  7.3968597086029181e-03  -2.2447099191341387e-03  5.3849764276307770e-02  7.3660518134134850e-02  1.1708358745009974e-01  5.5950810773239934e-01  5.3418091527182625e-02  7.9482940977402772e-02  7.0652703254048058e-02  1.1082083843012948e-01  3.7304449581025093e-02  3.4374434193966658e-02  9.5853757644999302e-02  1.4516622952521215e-02  5.9627445034398108e-01  5.7252017976989799e-03  3.6471089870839225e-02  4.7366534986753320e-02  1.0075150868326276e-01  1.0876486318324535e-01  1.3428734155769140e-02  1.6301566241482063e-02  1.6496447195068278e-02  9.7029535895737443e-02  -2.7408165828640224e-01  2.7279489336123144e-02  1.7152190251294015e-02  9.5502376729028008e-03  -2.1396120742219880e-02  8.1644962905559129e-02  -1.2644354084478423e-02  3.5584977053652642e-02  4.3858095924461260e-01  4.5121798480066713e-02  5.6544928727722855e-02  8.0876418489032195e-02  3.3221704612046399e-01  2.6114648809874120e-02  6.2182294560123681e-03  3.4537868009215128e-02  4.3455717506711546e-02  3.3951075361477415e-02  4.8740176478546660e-01  2.9308579833620368e-02  -3.1637434934759689e-01  -2.1830137463386592e-01  1.1313426367410062e+00  1.1190729380185931e-01  2.1296995185965406e-01  -1.3158480697123780e+00  1.9607215198470479e-01  1.1271051272842320e-01  8.2471188108937732e-01  7.7701380186468594e-01  -4.6409141070652715e-01  -7.0882792156876684e-01  2.1728444820269695e-02  2.7694142751679124e-01  -7.3950686386073616e-01  -3.9063260975180161e-03  -2.5297205349484064e-03  7.7579706406891069e-01  -1.0285446252105421e-01  7.4751777410216169e-01  -1.2986886520458123e+00  7.1118532419624703e-01  6.3160004792422508e-02  1.1120988896880167e-01  -6.7243163054236588e-01  -3.1365292295220709e-01  2.6659292981698196e-01  1.4198974172330392e-01  -2.4988763573306666e-01  -9.7253028844133338e-01  1.1790726002975191e-01  0.0000000000000000e+00  0.0000000000000000e+00  7.3737526997966552e-01  6.5556098038606758e-01  7.2263561428981038e-01  0.0000000000000000e+00  0.0000000000000000e+00  3.1429446178569444e-02  1.2263874450412754e-01  -9.5425286707972908e-03  -1.8207315274614990e+00  -1.3474425278402771e+00  -1.2078481928291772e-02  5.8722380234582161e-01  -6.7254136130113518e-01  3.2042773817468978e-01  1.6593214529499085e-02  4.8493824835279739e-02  9.1648841128699893e-02  -6.9811221654916988e-01  5.9514673728137263e-02  6.2846365973850613e-02  -9.4860849010811321e-01  -5.0234815314261427e-01  6.6420653056758386e-02  9.0449635485565935e-02  -6.2318541738402344e-01  -5.9651469083812869e-01  7.3784796460097579e-01  7.7276877256803556e-01  4.6277373521518235e-02  5.2904610775556089e-02  4.4091197973318841e-02  5.1819790702991156e-02  4.0358654912998060e-02  8.8069314180146935e-02  4.5840588350280605e-02  8.0064374893618076e-02  1.6772164734542391e-02  8.6745771661120172e-02  9.0460411487409048e-02  9.4356416061081375e-02  1.2977102161414733e-01  7.4255708186657290e-02  1.2231853337268604e-01  1.0243347614022545e-01  1.1780681986724134e-01  1.1331504759137098e-01  9.5981943074810630e-02  -1.4140452012426134e-02  1.2073789792042505e-01  6.6513361698239307e-02  7.1117679265595493e-02  1.6469612958153416e-02  1.0740330194604092e-01  7.3183061222001619e-02  7.7218569409457205e-02  5.1118058930802845e-02  5.1066029034220105e-02  7.4978993676522152e-02  5.5349747304214762e-02  8.0021387317795942e-02  1.1250709224653650e-01  5.9588571886633093e-02  1.0307684257330200e-01  5.7774037063059863e-02  1.0458275000302844e-01  1.0097924962496670e-01  5.3645402923078608e-02  2.1853339073292830e-01  9.7038003418483607e-02  -3.6166472799243393e-01  -4.9846113540918446e-01  -3.7221561939594122e-01  8.8584928504468141e-02  8.3882499805935290e-02  7.7412856528588481e-02  9.9915374293661083e-02  4.0290939441786140e-02  -6.8697191921027273e-02  9.3199738546248537e-02  3.7977988564114641e-02  5.5069334524696756e-01  8.7839228420457438e-02  -1.6540879450012358e-01  8.1252159395934970e-02  9.9400170847387739e-02  3.8176264241197265e-02  1.1501357550061364e-01  9.8952855551954377e-02  1.0133453105363799e-01  -2.2832721506084305e-01  9.5554682315203240e-02  7.6719409574282318e-02  8.5833258406476196e-02  1.0896141840597408e-01  1.1700579263665715e-01  4.7750406405308213e-02  -8.8466260939216201e-01  2.3526141615139895e-01  6.2655544049052228e-02  -2.7346995093692406e-01  4.9343502203370977e-02  5.7172498987204445e-02  5.5521546405048181e-02  7.9751337444173787e-02  6.7619992249380562e-02  1.6629289245921941e-01  1.2540746762393354e-01  7.3534591077911909e-02  1.0103611444339397e-01  1.0710336775521147e-01  1.5988433138636921e-01  2.4219917561534021e-01  -1.2980986945689114e-02  -2.2521791583978514e-02  -3.1235623010472974e-01  -4.1494787372531106e-01  1.0575541784735137e-01  1.1235421671319343e-02  7.5207248332836696e-01  1.6931093427785860e-02  6.5089229423279743e-02  1.5328860719763576e-01  -2.4522117134436971e-01  4.0600982231013820e-02  7.1168275839672362e-02  5.7169370311183831e-01  -6.2242868164806575e-01  1.5497163367119570e-02  2.6624367500181313e-02  2.3107087704832417e-02  1.0201793350612515e-02  5.5713541977952183e-03  8.8589121109206553e-02  1.5177555272189627e-03  -1.9901775685365633e-01  7.3974500321403014e-02  7.7266130043124562e-02  8.0612153219922142e-02  -6.8640592798679479e-03  1.0871138543540232e-01  9.9375649758898857e-02  -1.0901437061694073e+00  1.0925835341598263e-01  -4.3443975800531520e-01  4.1148826515101961e-02  4.2095722820862047e-02  4.5580502686517393e-02  6.8797619223428030e-02  6.4347067081245879e-02  1.1460365310676365e-01  1.1466148121383747e-01  6.2631826879417526e-02  6.8758909896996026e-02  2.7762626800379549e-02  9.0562444875245535e-02  -2.9488723965333731e-02  7.2993285254488085e-03  2.8939984391334155e-02  -7.5916649368787614e-01  3.5982732501581280e-02  1.0427922864907066e-01  1.0166815933697956e-01  1.2881896152133746e-01  5.9232759237184560e-02  1.0881390935562141e-01  1.6678425793797216e-02  9.7780282163924273e-02  -3.4148028648727946e-01  1.0779059242725415e-01  7.0552882322541685e-02  1.2895775585687569e-01  3.4152670356794458e-02  8.8966326561235376e-02  7.4206640405808855e-01  1.4303296118861242e-01  1.1152360171868701e-01  9.6684982091016766e-02  2.5435873286715711e-02  2.3332159211838222e-02  7.1143897560548092e-02  7.1351849248360577e-01  7.3135735101662280e-01  7.6520757680753626e-01  4.7263409863380880e-02  4.3384283997833020e-02  8.3855506607287689e-02  8.0294638531668083e-01  7.0643819838404165e-01  6.8038410663110105e-01  -3.9218535902564339e-01  -1.2362508331570845e+00  1.4392534206864174e-01  1.0264031733016986e-01  2.6107693060846780e-02  -1.1158421071693634e+00  5.1741731728004441e-02  9.4091572717376071e-01  9.3683811079814172e-01  1.9055557963376171e-01  -2.7668486925914965e-01  -4.2041647444322022e-01  1.1805394452442998e-01  -1.4416388667876552e+00  -6.9087106046924747e-04  1.4852080531494989e-03  1.1395064088085136e-01  2.0540770863562336e-02  1.8937616894604752e-02  1.1595107330138682e-02  3.8080495878270296e-02  8.4782863036506020e-02  5.7439107847036340e-02  1.3658649152712441e+00  3.7074932195405585e-02  4.0327296440958615e-02  -4.9782413691154374e-03  6.2324675363155058e-01  6.2300529281081340e-01  6.7317573735839209e-01  1.2746062573647611e-02  1.4515414206470909e-02  7.6021896383717022e-02  6.1475255754703695e-02  5.9094475268495483e-01  -1.6243068862659954e-01  -8.9245504728346992e-01  2.7912074503174726e-02  -3.9500410113288057e-04  9.9335022714274381e-03  2.1581664416084265e-02  1.0111560414592746e+00  1.0071658469295611e-01  7.8569831333225870e-01  -1.0593263394093269e+00  -1.3868222509876815e+00  1.3949049405075218e-02  6.4086486956630287e-02  -9.1025697481812340e-01  -3.3147731890040533e-01  -2.7638565741380072e-01  7.5910295693710261e-01  6.8614413229271431e-01  -4.3213151618109902e-02  7.9689839790688277e-02  1.2411980387968068e-01  -1.1259243220031821e-03  -1.2429150007589211e-04  -6.7758051291322667e-03  3.8010968128129657e-03  2.8961264561967958e-03  -1.4875656822018363e-01  5.7904724416504649e-01  -2.3019125386565812e-02  -1.0183483087575778e+00  -1.1231258587330277e+00  -1.9454984304312717e+00  -1.5119421762323187e-01  2.9757273802357803e-01  5.2099431891361014e-01  -5.8800121712020725e-01  9.6372120951241447e-01  3.0347912075016224e-02  3.8507998455320762e-02  2.0386799482701300e-02  3.2589811312806985e-02  5.1735712033933116e-02  -1.5764034950115386e+00  -1.1375098864192391e-03  -1.4154981174172861e-02  5.2466663809334685e-03  -7.4006470537785239e-03  5.1547968482703772e-03  7.9111684283282568e-01  7.3829205157631228e-01  7.3508503529425073e-01  3.9681018267106911e-02  -1.0470422273753159e+00  -4.8164682636042372e-01  5.1333213422486791e-02  5.9136177595158879e-01  2.7196232783191675e-02  7.3764989420604399e-01  1.1178599278201118e-02  2.1917907154762190e-02  5.4116138011707461e-03  1.3403691806427177e-02  6.0159653924573497e-01  3.2356881358561151e-01  3.3408136317325671e-02  -7.0580212948101473e-01  3.6128789547396602e-02  2.2847474799974270e-02  5.2124959937355818e-03  -3.6825975957916135e-04  5.6536047764882691e-01  7.7491089841760924e-02  1.0869048236127148e-02  6.7234729812621652e-01  2.1288909224288950e-02  8.5759927715068052e-01  1.6444773539257031e-02  -3.9637330743413340e-01  9.1545343863281989e-02  -6.5864520363002610e-01  -6.7359211942929806e-02  3.3858003516180868e-01  2.3288923576842310e-02  9.2721020783305894e-02  9.7639075190555868e-02  7.6481123902074774e-02  9.6228514808768720e-02  8.5119555529436439e-02  2.0988366361290120e-01  7.0919504079638673e-01  5.8932111778265760e-02  1.1151712426974450e-01  1.0907275977349061e-01  7.4378927511760354e-02  1.0582041308446673e-01  3.1739660027471833e-02  4.4898755404989714e-02  4.3910339910737638e-03  1.7393433017658132e-02  1.2788461796560294e-02  6.4644928511522507e-03  9.5912186478242734e-02  1.3322507710650300e-01  2.4941121155002846e-01  7.9238661828046217e-02  4.7968513944496000e-02  4.6469553234924299e-02  3.9474451859738698e-02  -4.7938028658595956e-03  6.9069068405664874e-02  6.5375470050989939e-02  9.2418894194473328e-02  -1.2710083937627021e+00  1.2294235928604337e-01  -1.7355876649224522e-01  8.2120624593813585e-02  1.5140629569065031e-01  1.4614453745041789e-01  7.1745561872630689e-02  7.6771878564699558e-01  1.1512128805775150e-01  6.1367085909983562e-02  5.9092449944855983e-02  9.1094192385177075e-02  -5.2347285537870270e-01  -3.1726934564341036e-01  8.5228085665514250e-02  6.6203536767045892e-02  6.4992912119551396e-02  6.9812818280517094e-02  2.0582609994941853e-01  -6.3969960300293427e-01  -7.9566639595618538e-01  -5.2085656760181409e-01  -2.4869148228993268e-01  3.1026084211289082e-02  2.0505924272273299e-01  2.0995035844536503e-01  -2.2231548648638760e-01  -5.2326447844131074e-01  -1.6310606892874837e+00  1.2558999148444761e-01  4.2359748121651684e-02  4.1706863410709692e-02  3.9991961409929298e-02  3.4117514880661927e-02  2.0424480547076518e-01  6.2516901529018801e-02  3.5407632236957913e-02  1.1496565599958188e-01  1.2083951925424649e-01  1.1904992691971325e-01  -8.0987500915785815e-01  -9.6605062972166778e-01  -7.5188939023785839e-01  5.8300800281536759e-02  5.6307322325727174e-02  -7.4570483824538869e-01  8.2995590426703958e-02  -7.7940705584697056e-01  6.1420663084072284e-02  6.1849806918914771e-02  1.2673066274551223e-01  1.2054790338126782e-01  1.1528480931036687e-01  1.1913536522067035e-01  5.1532484381633721e-02  7.7547071423941560e-01  1.1539007547608673e-01  1.3805774687780668e+00  -3.5474271600826707e-01  -3.6209711373407411e-01  -2.5433559230669789e-01  -7.2624986671799108e-01  -2.0310503387048426e-01  -1.2349959642892174e+00  1.2580201760248442e+00  -4.0904181336094603e-01  1.1734124961434664e+00  -1.2233794493244861e+00  -9.4830715465309723e-01  -1.1073644545052694e+00  -1.2537215402307818e+00  1.6432578717524597e+00  -3.8210292988170502e-01  2.5549071362168257e-01  -3.9197381454744407e-01  -1.2924721555675572e-01  -6.5729090738526808e-01  -1.2383497106442656e+00  -3.2418411717080514e-01  9.2849163290275216e-01  -5.7308772645343220e-01  -4.9531277201469526e-01  1.5223621189062269e+00  7.5998021539167082e-01  -5.8342413787653558e-01  -5.1515206274537151e-01  -5.7430847083196368e-01  -7.2983215640602794e-01  -6.2463019607447956e-01  -9.6231284623725044e-01  -9.5327808524717905e-01  -6.8908319062848100e-01  -1.1376855255498415e+00  -1.0472020948519538e+00  -1.1851181734519740e+00  -1.2068318997963532e+00  -1.2048595391414605e+00  -1.2282853108200475e+00  -1.2144662288024322e+00  -1.2397195914753747e+00  -1.2354782231293582e+00  -1.2206075457262275e+00  -1.2592995514159586e+00  -1.2411391724928431e+00  -1.2616933180749286e+00  -1.2964680706510550e+00  -1.2727507350591825e+00  -1.3695338013436422e+00  -1.2878997061262969e+00  -1.3723023776834455e+00  -1.4917464484875833e+00  -1.4087909560116043e+00  -1.6093663829058709e+00  -1.4464161466431016e+00  -1.6380599989722440e+00  -1.3691050061223027e+00  -1.4851886346445555e+00  -1.5086455891548369e+00  -1.3146179129233297e+00  -1.1577686910502571e+00  -7.1568115871844196e-01  -1.2491984798129381e+00  -7.5677507183976478e-01  -6.6741354833532640e-01  -5.1394674698882248e-01  -4.3393376138269296e-02  -2.90704994