<?xml version="1.0"?>
<VTKFile type="UnstructuredGrid"  version="0.1"  >
<UnstructuredGrid>
<Piece  NumberOfPoints="4269" NumberOfCells="8234">
<Points>
<DataArray  type="Float64"  NumberOfComponents="3"  format="ascii">0 1 0  0 0 0  7.5 0 0  7.5 1 0  1.197537668119028 0.5812868930080463 0  1.2 0.55 0  1.197537668119028 0.5187131069919538 0  1.190211303259031 0.4881966011250105 0  1.178201304837674 0.4592019000520907 0  1.161803398874989 0.4324429495415054 0  1.141421356237309 0.4085786437626905 0  1.117557050458495 0.3881966011250105 0  1.090798099947909 0.3717986951623264 0  1.06180339887499 0.3597886967409693 0  1.031286893008046 0.3524623318809725 0  1 0.35 0  0.9687131069919538 0.3524623318809725 0  0.9381966011250105 0.3597886967409694 0  0.9092019000520906 0.3717986951623264 0  0.8824429495415054 0.3881966011250105 0  0.8585786437626904 0.4085786437626905 0  0.8381966011250105 0.4324429495415054 0  0.8217986951623264 0.4592019000520907 0  0.8097886967409692 0.4881966011250107 0  0.8024623318809725 0.5187131069919539 0  0.8 0.55 0  0.8024623318809725 0.5812868930080463 0  0.8097886967409693 0.6118033988749896 0  0.8217986951623264 0.6407980999479095 0  0.8381966011250105 0.6675570504584947 0  0.8585786437626906 0.6914213562373096 0  0.8824429495415054 0.7118033988749896 0  0.9092019000520907 0.7282013048376736 0  0.9381966011250106 0.7402113032590307 0  0.9687131069919539 0.7475376681190276 0  1 0.75 0  1.031286893008046 0.7475376681190276 0  1.06180339887499 0.7402113032590307 0  1.090798099947909 0.7282013048376736 0  1.117557050458495 0.7118033988749896 0  1.141421356237309 0.6914213562373095 0  1.161803398874989 0.6675570504584947 0  1.178201304837674 0.6407980999479094 0  1.190211303259031 0.6118033988749896 0  3.75 0 0  3.75 1 0  1.875 0 0  1.875 1 0  0.9375 0 0  0.9375 1 0  1.40625 1 0  5.625 1 0  5.625 0 0  2.8125 1 0  2.8125 0 0  4.6875 0 0  4.6875 1 0  6.5625 0 0  6.5625 1 0  5.15625 0.5 0  4.21875 0.5 0  2.34375 0.5 0  3.28125 0.5 0  6.09375 0.5 0  7.5 0.5 0  6.897916666666666 0.5 0  1.842708333333333 0.5 0  0 0.5 0  0.46875 0 0  5.625 0.5302734375 0  7.03125 0 0  6.09375 1 0  2.8125 0.4697265625 0  3.28125 0 0  2.34375 1 0  2.34375 0 0  3.75 0.4697265625 0  4.21875 0 0  4.21875 1 0  4.6875 0.5302734375 0  3.28125 1 0  5.15625 0 0  6.09375 0 0  5.15625 1 0  0.46875 1 0  1.40625 0 0  7.03125 1 0  0.3954638734376499 0.5975780249976004 0  6.495833333333334 0.4072265624999998 0  5.859375 0.25 0  4.905729166666666 0.26513671875 0  4.453125 0.25 0  3.531770833333333 0.73486328125 0  3.968229166666667 0.73486328125 0  2.594270833333333 0.73486328125 0  3.030729166666667 0.73486328125 0  6.328125 0.75 0  7.198958333333334 0.3125000000000002 0  7.198958333333334 0.6874999999999998 0  5.390625 0.25 0  0 0.25 0  2.109375 0.75 0  2.109375 0.25 0  1.51921323205749 0.3418883887525936 0  1.522346610178253 0.6811769608297746 0  5.375456746419271 0.75 0  4.921875 0.76513671875 0  4.437956746419271 0.75 0  3.984375 0.23486328125 0  3.500456746419271 0.25 0  2.578125 0.23486328125 0  3.046875 0.23486328125 0  5.874543253580729 0.75 0  6.642123189445656 0.6909095493086836 0  6.746354166666666 0.2391688368055553 0  0.3197109619185111 0.2850049285972083 0  6.328125 0 0  0.6313375889370429 0.2351325552547357 0  0 0.75 0  6.252283381534729 0.2693808819694041 0  0.234375 1 0  6.948437500000001 0.7543055555555555 0  0.5934018769555939 0.7694151657947577 0  1.858854166666667 0.75 0  1.858854166666667 0.25 0  1.640625 0 0  2.093229166666667 0.5 0  7.5 0.25 0  3.282227579752604 0.75 0  7.5 0.75 0  1.171875 0 0  1.303539853147731 0.2235426933121065 0  5.148177083333333 0.2575683593749998 0  2.351822916666667 0.742431640625 0  1.640625 1 0  4.202380413457425 0.7645435094236485 0  3.047822985053062 0.4701848030090332 0  2.577177014946938 0.4701848030090332 0  4.672792740482199 0.76513671875 0  4.922822985053062 0.5298151969909668 0  5.390593497949761 0.5156244924311331 0  5.610292740482199 0.76513671875 0  3.516602579752604 0.5 0  4.45496853898097 0.4865915990446593 0  5.85753146101903 0.4865915990446593 0  3.749511210123698 0.23486328125 0  3.983397420247396 0.4999999999999999 0  2.343497975411212 0.2346270081980111 0  4.219002024588788 0.2346270081980111 0  0.703125 0 0  2.8125 0.2343755075688669 0  3.046875 0 0  2.578125 0 0  3.515625 0 0  3.984375 0 0  4.453125 1 0  5.390625 1 0  2.109375 0 0  2.109375 1 0  5.625 0.2921402030705575 0  5.390625 0 0  7.265625 0 0  6.796875 0 0  6.328125 1 0  3.046875 1 0  2.578125 1 0  3.984375 1 0  3.515625 1 0  4.453125 0 0  4.921875 0 0  5.859375 0 0  0.703125 1 0  1.171875 1 0  7.265625 1 0  4.921875 1 0  5.859375 1 0  0.234375 0 0  6.796875 1 0  6.980310975276531 0.2285890127127066 0  5.149170481934885 0.772689292163473 0  3.274170481934884 0.2273107078365268 0  6.101334126790364 0.7722468376159667 0  4.678005340872584 0.3000799877067239 0  2.8125 0.6921051326382495 0  3.75 0.6921051326382495 0  0.3515624999999999 0.8134571721668546 0  0.4990405774417521 0.4070099317153735 0  0.1789273931360182 0.625 0  6.31239060814315 0.5298877111157968 0  6.456979773992304 0.1917956348713352 0  6.699870808919271 0.4406293402777773 0  1.337539480965883 0.7944303676599538 0  6.058675797563041 0.2019812164653516 0  0.8203125 0.1643029084422534 0  0.1480856513011711 0.375 0  1.090769294689562 0.1719186776982972 0  7.291088163206459 0.5 0  7.094502414936563 0.5197902199074071 0  0.6046212059042245 0.5730066483871106 0  1.707231580809486 0.6342709161352207 0  1.685961352504593 0.8193269193390785 0  1.374721602852827 0.4600373025865813 0  6.486415510043844 0.5916440776477192 0  1.5234375 0.1508863828685116 0  1.707925830421689 0.3657739208189008 0  0.1674513225045584 0.8278776664019765 0  7.138268756771176 0.1438183366439137 0  7.1484375 0.8616388888888887 0  7.328562530764119 0.819498462930605 0  4.101073710123698 0.3678637200736647 0  1.693878467219965 0.1911955120941053 0  1.577566745468488 0.5110082404081502 0  6.6796875 0.8653871806883484 0  6.498039504430512 0.825568433346395 0  0.7562556668576472 0.8333197949571929 0  4.101045914668806 0.6255195807449272 0  5.030745188395182 0.382829047309028 0  2.476364945868651 0.6095868094762166 0  2.729359843907322 0.8460525663191247 0  2.9296875 0.8740763101564099 0  3.163518307559356 0.6254622797994247 0  3.666859843907322 0.8460525663191247 0  3.8671875 0.8740763101564099 0  4.8046875 0.12592368984359 0  3.14936031382311 0.8606990583876851 0  2.4609375 0.8747622921397776 0  5.023140791101972 0.1392266772452574 0  0 0.125 0  0.1759922923594607 0.1727589856739889 0  4.5703125 0.125 0  7.327755777818006 0.1766156770456191 0  5.5078125 0.125 0  5.719712725029036 0.1460701015352787 0  4.327848962028002 0.3674169956512513 0  5.982681121544351 0.3692637923021713 0  3.398926289876302 0.6245417594909667 0  5.281756792511996 0.3827993367299961 0  2.226822645963271 0.6252438868405666 0  2.234390064317166 0.8676616584526566 0  5.2734375 0.125 0  1.96796875 0.382568359375 0  2.234651037971999 0.3674169956512511 0  1.984114583333333 0.132568359375 0  1.9921875 0.875 0  1.984114583333333 0.632568359375 0  5.748733794462357 0.8678269127183313 0  3.3984375 0.875456329184688 0  1.512925924995415 0.8582958012121853 0  1.359299372802969 0.6275861864990343 0  4.810521420483513 0.4041767793635395 0  0.2996213306116602 0.455339710363317 0  5.999933717403708 0.6388425470751088 0  5.250033449003657 0.6388713364551682 0  3.631676045992918 0.3525406652400928 0  4.3359375 0.8816499670325881 0  4.343577437052484 0.6116511299909198 0  3.375033449003656 0.3611286635448316 0  5.763152151652243 0.6249404690537395 0  4.549347848347757 0.6249404690537396 0  5.5004588702411 0.6403667365776566 0  5.976118394847484 0.8816230218343086 0  5.054722486865804 0.6338007028640954 0  3.164542163493752 0.3520519332736524 0  2.445407482032355 0.3672168403687257 0  4.8046875 0.882568359375 0  4.1015625 0.117431640625 0  2.4609375 0.117431640625 0  2.695556894938151 0.3520510350344335 0  2.929443105061849 0.3520510350344335 0  3.881979231817319 0.3670559016511187 0  3.8671875 0.117431640625 0  4.805389247695744 0.6470047893641744 0  3.399370721942191 0.1184066543556767 0  5.274370721942192 0.881593345644323 0  3.618253274934649 0.1316869186284249 0  2.6953125 0.1171877537844335 0  2.9296875 0.1171877537844335 0  2.21873344389451 0.125 0  4.3359375 0.1171877625080073 0  0.6659898565672709 0.3986593551313873 0  7.363359022954956 0.3481046411219251 0  7.363359022954956 0.6518953588780749 0  5.487719392831826 0.3828237631077121 0  2.695054578344725 0.5809158475691247 0  2.944553877887707 0.5964065668438148 0  0.3515625 0.1201898858097106 0  5.5078125 1 0  4.5703125 1 0  5.031746201297604 0.882568359375 0  3.1640625 0 0  6.2109375 1 0  6.186845385763124 0.6336356480571081 0  4.1015625 1 0  6.810399074069772 0.6495574751396682 0  0.4740615253480797 0.2509287743856873 0  7.052064303830151 0.3684417917792242 0  6.195177069665382 0.1216488332168849 0  5.72300154718324 0.4112068202852788 0  3.879157465495092 0.6111892850691246 0  3.645760045247695 0.5809158475691247 0  6.868257400485771 0.3427840810237202 0  6.612030892260864 0.1521752713064389 0  6.615666885941117 0.3151079644097221 0  4.04296875 0.8633718902669071 0  1.183031453639096 0.8486801864185936 0  6.9140625 0 0  6.859079526500421 0.1398292786950638 0  6.808232443325651 0.7957411753922057 0  6.9140625 1 0  4.544955211100143 0.3675874343205077 0  1.0546875 1 0  6.122060236165557 0.3316791557072867 0  0.5859375 0 0  5.9765625 0 0  5.44921875 0.870984788733638 0  4.51171875 0.870984788733638 0  0.7608354256382215 0.2931261274224557 0  6.386875332239937 0.3156583003094978 0  6.985654756850997 0.6147408423643147 0  6.223797257919172 0.8535621912121121 0  5.936822413218736 0.1338376546337823 0  6.23933008800134 0.4095573603773768 0  0.5414022462152697 0.1305482677949959 0  6.331360438104348 0.1370086318183389 0  0.956404929269873 0.1374266563647954 0  1.2890625 1 0  0.691305981127761 0.6764829884281737 0  3.531251607241209 0.8678916320952239 0  2.59787442813022 
[...]
<PointData  Scalars="f_71633"> 
<DataArray  type="Float64"  Name="f_71633"  format="ascii">7.4061326930110460e-01  7.7092041122581945e-01  0.0000000000000000e+00  0.0000000000000000e+00  -1.4546147544040646e+00  -1.1153579463962244e+00  -6.8478984295630396e-01  -4.3155864326428384e-01  -3.5003628325319258e-01  -3.0965191253206192e-01  -2.7839196267829230e-01  -2.6435343134157085e-01  -2.7856078608274393e-01  -3.1104225563631344e-01  -3.9056168458635765e-01  -5.2928892893627544e-01  -6.7378931134196962e-01  -7.3970437358234564e-01  -6.0841551576364983e-01  -3.0503772573868082e-01  1.6021900817534501e-01  6.9335132073551842e-01  1.1969679267067941e+00  1.6231511247196173e+00  1.8676861988256923e+00  1.8925236400680567e+00  1.6815402572572298e+00  1.2733369363137390e+00  6.9745830413114773e-01  8.9836879307369485e-02  -5.4967791854795534e-01  -1.1426436818562615e+00  -1.5810755188224548e+00  -1.8503432284701136e+00  -1.9396647580899824e+00  -1.8250765320914291e+00  -1.6461507789874492e+00  -1.4952911684330752e+00  -1.4038038002074298e+00  -1.3517705466130598e+00  -1.3216817532610587e+00  -1.3452619008231947e+00  -1.4097562803002519e+00  -1.4983269074334513e+00  1.1533049578590071e-01  1.1014464630153191e-01  -4.4162478733463201e-01  -2.5031432758248112e-01  3.7750838285219118e-01  -2.6963326797872966e-01  -8.4894301287827667e-01  5.6107129938687682e-02  5.6266375438255453e-02  1.8124808912670029e-01  1.2185664511177827e-01  8.3425540403640697e-02  8.1267151682635763e-02  2.7308144519922344e-02  3.7833991140711211e-02  7.0505984756833173e-02  9.9211614228451220e-02  8.0193044794893253e-02  1.3153751022881854e-01  4.2779873888207087e-02  0.0000000000000000e+00  1.4453609614172708e-02  -6.6476815775613718e-01  7.9124664630037778e-01  7.6234950712705452e-01  5.6133324183904917e-02  9.9646326561417236e-03  4.6035906141973004e-02  1.3952553204207060e-01  1.2572869279314591e-01  2.6364992960254641e-01  4.5954555455296732e-02  1.1434646776438431e-01  1.0177452558240416e-01  1.0057829061544110e-01  8.5308401444476448e-02  1.3735457632112694e-01  6.4602813624272018e-02  4.1610252265090221e-02  7.5331078806234922e-02  6.8974330683026563e-01  -3.9094373565623985e-01  -3.0580327530643825e-02  8.7794650051911605e-01  2.7452860490795580e-02  5.0238855888931858e-02  7.8967876279660967e-02  9.0167909502841412e-02  1.2307200268524980e-01  1.0720781284308860e-01  1.9528145916984244e-01  1.4944264105871374e-01  3.2501855938434278e-02  7.5023147616316036e-03  6.5213916697917807e-03  6.4313053672176754e-02  7.7747768503138881e-01  5.2202082798534964e-02  -2.4616753401251837e-01  -1.5155342865323700e+00  -1.7609459608404172e+00  6.2946364268191085e-02  7.7393349612128515e-02  9.2233689716570588e-02  1.0814257868460025e-01  1.2281142091205167e-01  1.0215908978345736e-01  1.2940879059953808e-01  4.7859582267284283e-02  2.2478866694692567e-02  1.8261460272976378e-02  8.0325086994070827e-01  3.5424315262139003e-02  8.0754109368124638e-01  7.5592341297038856e-01  3.5114531634598274e-02  7.3378435497841277e-01  1.1482835689464042e-02  7.6506043547125135e-01  1.1830752937851670e-01  -5.5085843249953126e-01  -4.1801572723702002e-01  8.9425559648924111e-02  0.0000000000000000e+00  1.3542838215044001e-01  0.0000000000000000e+00  -5.1599245621267796e-02  -3.9702859882144137e-01  7.0696355857100948e-02  1.4659316217555013e-01  -5.8274857934213797e-01  1.0034135608154204e-01  1.3703894678262224e-01  1.2538015861654672e-01  8.4161153719633022e-02  7.8169292251130618e-02  6.3939766275392607e-02  5.5447023592726845e-02  1.2134776548332979e-01  9.2131523166174900e-02  5.0715546313724311e-02  1.1495376068540168e-01  1.0633583948677457e-01  1.7725001784562169e-02  9.8779634216312209e-02  7.0466124359538307e-01  1.2480599040409296e-01  1.2822700277735002e-01  1.0518624487996799e-01  1.2251525737935150e-01  1.0916616278451072e-01  9.2204288412167837e-02  6.3941112218155599e-02  -4.3752185803298516e-01  -5.4629204044061672e-02  5.7728999741345731e-02  6.0594487340000724e-02  1.1634581908699676e-02  1.3781169624348963e-02  3.5262811335137353e-02  1.5513249836172796e-01  2.5484097501157676e-01  1.0692599325545778e-01  1.2702943180153145e-01  9.1178391343796211e-02  7.5782052625074842e-02  4.1919367219023722e-02  4.9246744447649926e-01  -9.6749012688875491e-01  -1.5642441793186579e-02  7.6223995469697048e-02  5.0683236042527585e-02  7.6875465822361455e-01  5.8328715354865376e-02  1.4285270194004641e-02  7.0292663937466845e-02  1.2774052412557074e-01  4.1290789702580342e-02  8.5155725456120712e-02  1.6332729726894946e-01  1.1396471199925719e-01  7.4071361970882243e-01  9.6760686328653034e-01  7.8999232720181789e-01  3.3405756091821434e-02  2.2211651145245918e-02  1.9849741728099404e-02  -1.5630883280559744e+00  4.1721711184454002e-02  5.4962447096057210e-01  7.9371902063123390e-01  6.4021884868449581e-03  1.5313848463990142e-03  1.0791125741636563e-02  1.1866015828916534e+00  -2.3539141848779296e-01  -5.1040712328982041e-01  -1.2110117974795975e+00  2.6779646997100778e-02  -5.4650113919945886e-01  -1.2435948775106465e+00  7.4641524449997021e-01  5.4630881152271269e-03  -8.5771509901397102e-03  7.6327930681108917e-06  1.0530129123147529e-01  -6.2704281672373396e-01  -1.4725952005675744e+00  2.3712050770831161e-02  2.8477083029596052e-02  3.8101846700456871e-01  1.0319022856107268e-01  7.3564874495814808e-02  1.4310133687379173e-01  1.9209120294415585e-01  1.6256476412722518e-01  1.3849220914357924e-01  1.1716501104424701e-01  1.1154265602592263e-01  8.0398640317018336e-02  1.4419714794254510e-01  2.7395384739124684e-01  7.2240451381867785e-02  7.7124906250236125e-01  7.7267583511303906e-01  8.7882456854339278e-02  9.3148853604029854e-03  5.9665118693275315e-02  5.2959901073012405e-02  9.6815644836067721e-02  4.6197950054460250e-02  1.2829579552412451e-01  6.7078629819534066e-02  -9.7133632839289993e-03  -2.4329048740831190e-02  6.5526008880342643e-02  -2.2409425452492773e-01  1.7708793664044993e-02  -6.7928981771236385e-01  -3.0329966397055892e-02  2.1199595722734477e-01  5.3306193885793232e-02  1.3026535124620550e-01  -9.3560145300259479e-01  -2.2318094639684225e+00  8.0690271412385536e-02  8.4121295809565144e-01  4.5767288356226343e-02  6.8913173472948355e-02  1.1904942086399968e-01  9.3596667758280988e-02  9.6368586812850335e-02  1.2759779187184822e-01  5.2555951865475098e-02  8.8413687012457359e-02  6.0702913489864466e-02  4.6091007856651198e-02  7.3153472254384261e-02  1.3114909920157683e-01  8.1726993297044068e-02  8.4969818591143012e-02  1.0453682075408298e-01  8.4152949263505181e-02  1.2354979904223501e-01  1.3255045163881266e-01  1.1156089157567793e-01  1.1173820119769984e-01  8.1802461431760953e-02  1.2429357700332457e-01  6.8755269020115667e-02  1.1911982098901372e-01  1.1627740733471151e-01  1.2654314957452370e-01  -1.5056459227439695e-01  9.5319199653410930e-02  1.1419584481547624e+00  8.1823754249847058e-03  -1.6551137891505200e-03  5.9699623527634811e-02  1.5348092469816590e-01  1.4704276849090123e-01  7.6749725637594390e-01  5.7811553757022953e-02  8.7857953763448238e-02  7.9032043062117724e-02  1.2557890446863199e-01  3.9853148413773867e-02  3.7915208665590200e-02  1.0403182757748745e-01  1.5993830461875892e-02  8.1632186137746954e-01  7.2739604197387293e-03  4.0130222146793217e-02  5.2309692770371140e-02  1.1064603594779221e-01  1.1909240780807266e-01  1.5858684539369779e-02  1.8471914471234349e-02  1.9544201103100445e-02  1.0683525350450021e-01  -1.1496203633869568e+00  2.9754268546027501e-02  1.7828404179759155e-02  1.0603538420137113e-02  -1.9285229678888131e-02  8.9654094358418826e-02  -7.5342465393569380e-01  3.9181563643923056e-02  7.4920450556015106e-01  5.0334760023740044e-02  6.1515943341826078e-02  8.7841288762396608e-02  7.3763881679510945e-01  2.9613313388895415e-02  7.3652822379123928e-03  3.7204519116962542e-02  4.8443815054151206e-02  3.8197157707242538e-02  7.6357834047133299e-01  3.3297923852140546e-02  2.9991305105203320e-01  -9.8471230796202769e-01  1.0332506144561990e+00  1.2411274893365928e-01  2.3193660918375802e-01  -8.4870898485671697e-01  -3.8677125590827005e-01  1.2756864293441170e-01  8.0897360783785288e-01  7.0122634187635868e-01  -4.6289700447598620e-01  -3.6549604973017974e-01  2.4626639310421042e-02  -2.5798024538644082e-01  -1.2256285511623088e-01  -3.2535191138324503e-03  -2.2882741082404100e-03  6.2165735377504805e-01  -8.5606369720430397e-01  7.6908761442778240e-01  -2.4435877974559125e-01  8.0635120066804822e-01  7.0020406002081509e-02  1.2145125756419886e-01  1.1618823375026945e-01  -4.2504672953259812e-02  -7.4355283198746425e-01  -4.0947896211854612e-01  -5.1420815660261500e-02  8.1036462438039511e-02  1.2968664502468588e-01  0.0000000000000000e+00  0.0000000000000000e+00  7.4276304261154624e-01  7.8807152915455059e-01  7.7624554221915132e-01  0.0000000000000000e+00  0.0000000000000000e+00  3.3985142179175580e-02  1.3671743040879211e-01  -6.6899524251075653e-03  -1.8326425503060675e+00  -9.6159629586556139e-01  -7.8653201233641768e-03  7.6971973280788297e-01  -4.1371241913337553e-01  7.0421341914931468e-01  2.0668600121378777e-02  5.4598998739245279e-02  1.0000697195276917e-01  1.0310600416735960e-01  6.5863421587492296e-02  6.9469094533935918e-02  1.4632770625751662e-01  7.1594816431703026e-02  7.2624544148725462e-02  2.0962853183523392e-01  1.1596607502139450e-02  -2.8259870863398751e-02  7.3946748362461812e-01  5.8598852898619724e-01  5.1293575953567393e-02  5.9029862549285377e-02  4.8426392394441110e-02  5.7463543717861422e-02  4.4115427348060655e-02  9.6296908892810618e-02  5.0474575520344185e-02  8.7970787817974266e-02  1.8789243116240192e-02  9.5787521834270126e-02  1.0041451823539052e-01  1.0431524437493855e-01  1.4122583854446932e-01  8.3638257344953421e-02  1.3346848276032222e-01  1.1198747439198024e-01  1.2849881503331159e-01  1.2408223325000886e-01  1.0493692847592881e-01  1.0624480823498908e-01  1.3422588172027258e-01  7.4145640341864438e-02  7.8821163995028795e-02  1.0870304223821833e-01  1.3906828787373104e-01  8.0937584134133586e-02  8.4499321255144574e-02  5.6319864665530392e-02  5.6426251833905983e-02  8.3741329613685481e-02  6.1541179377006934e-02  8.9180500152198361e-02  1.3250519866410171e-01  6.6441651448303746e-02  1.1302448560333686e-01  6.3212899258623279e-02  1.1479297533055406e-01  1.1040562082135071e-01  5.9621998018663427e-02  -5.2821742498213353e-01  1.0555213124367886e-01  -8.2359187745193477e-02  2.7126886672428845e-02  7.3715225384939215e-02  9.6647442839032427e-02  9.1126481618437866e-02  8.5742533729688694e-02  1.2854912305300606e-01  1.1729723849486841e-01  1.0532005919442024e-01  1.0117284259149460e-01  4.1494460390027875e-02  7.6445358755674042e-01  9.5167722212705266e-02  -1.0171444520543764e-01  1.2246034500949420e-01  1.2634785105322507e-01  1.1726636546611177e-01  1.2373503912417931e-01  1.0824549826366586e-01  1.1142631824775921e-01  9.3292652061913839e-02  1.0353265643423026e-01  8.8442677648004592e-02  9.2994694310929743e-02  1.1806656101794304e-01  1.3132546901309572e-01  5.4066806237052477e-02  -9.0398324104390040e-02  -6.1044699908792555e-01  6.9787607488515202e-02  3.5381921292168765e-02  5.4641705398895922e-02  6.3915016565669072e-02  6.1992515086565073e-02  8.9469815569739014e-02  7.3925182241980816e-02  3.0620521879121537e-01  1.4097325303496572e-01  8.2532505316055896e-02  1.1074071151955857e-01  1.1710883937995874e-01  1.6098468449021919e-01  2.0609043274184899e-01  -1.1174117826294591e-02  -2.1393730608837772e-02  -2.1465639452928692e-01  2.1667117312976092e-01  5.9312838045830762e-01  1.3901476349363395e-02  7.1634682625329615e-01  2.1575401181007717e-02  6.8958280968797747e-02  -3.2123083412717940e-01  -7.4398551434044702e-01  4.4012934008908454e-02  7.7134757003716414e-02  1.5322198148578514e-01  -1.1041459593298221e-01  1.4651558265406234e-02  3.0280308657630144e-02  2.5951266430762388e-02  1.3738541342409838e-02  6.8364764444730020e-03  1.3019752355114356e-01  2.8562638055391011e-03  -1.0470300484787813e+00  8.0984329530373253e-02  8.4677196320925782e-02  8.9091687211762985e-02  -5.6888880922289315e-03  1.2790934111234231e-01  1.3542312377894564e-01  -2.0490097030142204e-01  1.1938387947052552e-01  1.9569068955013241e-01  4.4285459760979112e-02  4.6870805471029647e-02  5.0457186781035016e-02  7.7126975635063461e-02  7.1725779355703248e-02  1.2613754412398107e-01  1.2491431837997892e-01  6.8866431756969590e-02  7.7118847298971241e-02  3.0927342972058604e-02  9.8998910666239226e-02  2.0694308927336383e-01  8.9855604195784242e-03  3.2662476284318571e-02  -8.3883468785079385e-01  3.9690547620565286e-02  1.1426504300687315e-01  1.1210797673311733e-01  1.5566072599649156e-01  1.5113139787034099e-01  1.1940989936950724e-01  1.7388606711654858e-01  1.0720208198983618e-01  -1.5225017041159461e+00  1.1725087259967695e-01  7.7728928348730464e-02  1.4365885670714906e-01  3.8027961827670903e-02  1.5082483722619314e-01  7.3278361799719771e-01  1.5238848608968722e-01  1.2128862611205886e-01  1.0601922929616185e-01  2.7995224845563417e-02  2.7315457019471617e-02  7.8144929341652944e-02  7.8779818508538391e-01  7.6876681649606426e-01  8.1569843485993865e-01  5.3121433062246433e-02  4.7691377168019834e-02  9.1820697576464827e-02  9.1104701305899216e-01  8.5540463538763167e-01  9.1153229661462831e-01  -1.0288172798189510e+00  -1.6593319215376119e+00  1.6768518015908379e-01  1.1231596262651780e-01  2.9857030915984965e-02  -9.5344848236348700e-01  5.7403017073561033e-02  1.0390507471083053e+00  9.6073339462819585e-01  1.7651034078871738e-01  -1.0818667371792843e+00  4.3903973382964909e-02  1.3009774426257295e-01  -1.6025385141313040e+00  -6.4361577600925376e-04  3.0909903326114692e-03  1.2913136696025301e-01  2.3797052580572867e-02  2.0978648830312779e-02  1.4808593487502341e-02  4.3706416391156362e-02  9.2695944513304290e-02  6.3752596466134542e-02  1.4953319115810375e+00  4.0952717507275790e-02  4.4811330110737180e-02  -6.5270991446772742e-03  7.8227010864365332e-01  7.8569807668084635e-01  8.1425947197215520e-01  1.5609216548900925e-02  1.6518809337676413e-02  8.4388775163252994e-02  -3.4103733243098427e-01  7.7496886968225598e-01  -4.5927192882850021e-01  -9.9388170150368785e-02  3.1168536391088145e-02  -3.7601236280299457e-04  1.2151631955651923e-02  2.4437941984039688e-02  9.7604605953794588e-01  1.1107127187636451e-01  7.9947186154208938e-01  -1.4699821815690648e+00  -5.4743237466461026e-01  1.6824007275486112e-02  7.0967412707816563e-02  -1.4576012777127609e+00  -5.4602147610975305e-01  -6.3657695107515888e-01  7.1052777908944553e-01  7.9444744734027906e-01  4.9474303143249815e-01  8.8418645325076192e-02  1.3825995515869410e-01  1.5720111019792526e-04  1.9034395656453208e-03  -4.1405297335205217e-03  2.5354316664612381e-03  3.9489382514734288e-03  -9.3681575393833738e-01  7.6759320801792230e-01  -2.1832066447308444e-02  -6.3620247718646133e-02  -3.6993161897500287e-01  -1.3329137461417710e+00  -1.4962628460782064e+00  -7.9075717558700975e-01  7.6378412169730991e-01  5.7761121287413598e-02  1.1207163306422463e+00  3.3880083769073643e-02  4.2858455041873349e-02  2.2231863268864081e-02  3.5733276276654596e-02  5.7884826899980465e-02  -7.3480071776528399e-01  2.0994935353971724e-03  -1.5618706450255647e-02  7.5239448951538923e-03  -6.3916809051426451e-03  5.7746401872033658e-03  5.3068794751871184e-01  7.3750850175230209e-01  7.4791187951483429e-01  4.4581561021982276e-02  -1.9049218738440063e-01  -3.2844036358359674e-01  5.6761562266025634e-02  7.7110621313145378e-01  3.0096672244787816e-02  7.4110522325651840e-01  1.3400634000674974e-02  2.5161776665262169e-02  6.4162764009840102e-03  1.8591007541750824e-02  7.7405633599322110e-01  -1.2107968656875213e-01  3.7308138511831901e-02  -2.4125061647646351e-01  3.7987618858914302e-02  2.6447241650290335e-02  7.9597193259144852e-03  2.3547921923342723e-04  7.8047590303204861e-01  8.4485988994176212e-02  1.4394072746096588e-02  3.4416419352310512e-01  2.3837086024387385e-02  6.7721429123443311e-01  1.8574419296776380e-02  -9.6232391081729118e-01  9.9046700494075685e-02  5.4269120763142394e-02  1.5590777840552689e-01  7.2316879599058215e-01  2.5497796594426473e-02  1.0145392731738880e-01  1.0647530422380563e-01  8.4426988311046225e-02  1.0659227063024478e-01  9.3707126279995237e-02  6.4977128214829472e-01  1.0468623971559283e+00  6.4497598487170862e-02  1.9358038034789712e-01  1.2006689345001974e-01  1.7645667411761748e-01  1.1644397292179715e-01  3.4231045722505619e-02  5.0793389013042721e-02  5.7230509102106225e-03  2.1042111377252350e-02  1.6366369802410068e-02  8.4356986289318286e-03  1.0658874946735893e-01  1.4782957249144216e-01  -5.3832630641097712e-01  8.7189710535524739e-02  5.3452881196319517e-02  5.3295186142600211e-02  4.2360609361277460e-02  -5.4102444653797693e-03  7.5862774741547345e-02  7.3147621591407710e-02  1.0128403783770898e-01  -2.6718462105685074e-02  1.3465179569485086e-01  1.0222239472713089e-01  1.7313069091160699e-01  1.5683020222293997e-01  1.5660949052042047e-01  7.8441088074404280e-02  8.4802320505268414e-01  1.2628990720664190e-01  6.8304435429233701e-02  6.4940476136780029e-02  9.9506166579926295e-02  6.2894164908095282e-02  -7.3545751713589791e-02  9.3346164237523371e-02  7.3130302844170603e-02  7.1747052653344093e-02  7.7109488687142805e-02  -5.4716741012539460e-01  1.5816602436665475e-01  2.8376924127756625e-01  1.3494388842490021e-01  -1.4079336562827225e-02  -4.1401375316699301e-01  -4.3030081277802507e-01  -4.8853968902330491e-01  1.1166549458287496e-01  -6.6265756026937126e-03  -1.9843925395949928e+00  1.3691766912343842e-01  4.7328814808871786e-02  4.6060432987831995e-02  4.4424218158270343e-02  2.2222527916911958e-01  2.8078379942320941e-01  6.9152804543123628e-02  3.9026334566517787e-02  1.2557670071191482e-01  1.3214434047993795e-01  1.2998142084725917e-01  -5.1664047465355013e-03  4.7163233930116330e-02  1.4768321222862282e-02  6.4416287369765804e-02  6.2514740849033495e-02  -4.9526742368034594e-02  8.9622015299880328e-02  4.7058197263677826e-02  6.8044856037150617e-02  6.8222750844753807e-02  1.3928826260692348e-01  1.3346982192394402e-01  1.2879931385726456e-01  1.3368247803134642e-01  5.6666171335158118e-02  6.4810133367939260e-01  1.2756437515039493e-01  1.3917586667081794e+00  -1.2531544652475066e+00  -1.2809717339218307e+00  3.0573861338479569e-01  -1.8906209003358565e+00  -8.8282023591084202e-01  -2.3767077822786625e-01  1.1283944641017940e+00  -1.2592450375019040e+00  1.4302687748838425e+00  -2.6393109301460582e-01  -1.8563266156983801e-01  -6.4973280607898010e-01  -3.3025375836156717e-01  1.6718337677682589e+00  -1.3506777369163288e+00  -1.7356378624822855e-01  -1.3525152002106868e+00  3.9298020538576861e-01  -1.4289244764322724e+00  -3.1702943369472258e-01  -9.6874041008147516e-01  6.8950337329853273e-01  -1.4096689697543543e+00  -1.4480932791401453e+00  1.7090558570350323e+00  1.1137074592107377e+00  -1.2983256694715832e+00  -1.5007353320430685e+00  -1.3774317522100872e+00  -8.8162767914868778e-01  -1.2292381409033428e+00  -5.3023217079559037e-01  -6.2026400391900161e-01  -1.0433790925818081e+00  -3.8107606510631314e-01  -5.0362153983667257e-01  -3.5703466912486126e-01  -3.2829378153646471e-01  -3.3135601406735332e-01  -2.9375063640806698e-01  -3.1082593918437973e-01  -2.6695771094309295e-01  -2.7186218779877980e-01  -2.9791412145453849e-01  -2.7009089542929343e-01  -2.6652081044622467e-01  -2.7249681182445817e-01  -2.9097628575616885e-01  -2.7565458282124367e-01  -3.4428119186135109e-01  -2.8468759187666542e-01  -3.5138876429819665e-01  -4.5343257753135990e-01  -3.9256882962301176e-01  -5.9638549518632311e-01  -4.4067845713029907e-01  -6.9252763142553553e-01  -4.9212032845354053e-01  -4.9434676799978539e-01  -6.5824394335783332e-01  -4.7458691941079023e-01  -4.2795266407257138e-01  -6.2282298586253011e-02  -4.4887293084129409e-01  -1.1268322359140609e-01  -4.8147950318980962e-02  7.8873417024793835e-02  4.5952659429856230e-01  2.5755517946557871e-01  7.1326459123494013e