<?xml version="1.0"?>
<VTKFile type="UnstructuredGrid"  version="0.1"  >
<UnstructuredGrid>
<Piece  NumberOfPoints="4269" NumberOfCells="8234">
<Points>
<DataArray  type="Float64"  NumberOfComponents="3"  format="ascii">0 1 0  0 0 0  7.5 0 0  7.5 1 0  1.197537668119028 0.5812868930080463 0  1.2 0.55 0  1.197537668119028 0.5187131069919538 0  1.190211303259031 0.4881966011250105 0  1.178201304837674 0.4592019000520907 0  1.161803398874989 0.4324429495415054 0  1.141421356237309 0.4085786437626905 0  1.117557050458495 0.3881966011250105 0  1.090798099947909 0.3717986951623264 0  1.06180339887499 0.3597886967409693 0  1.031286893008046 0.3524623318809725 0  1 0.35 0  0.9687131069919538 0.3524623318809725 0  0.9381966011250105 0.3597886967409694 0  0.9092019000520906 0.3717986951623264 0  0.8824429495415054 0.3881966011250105 0  0.8585786437626904 0.4085786437626905 0  0.8381966011250105 0.4324429495415054 0  0.8217986951623264 0.4592019000520907 0  0.8097886967409692 0.4881966011250107 0  0.8024623318809725 0.5187131069919539 0  0.8 0.55 0  0.8024623318809725 0.5812868930080463 0  0.8097886967409693 0.6118033988749896 0  0.8217986951623264 0.6407980999479095 0  0.8381966011250105 0.6675570504584947 0  0.8585786437626906 0.6914213562373096 0  0.8824429495415054 0.7118033988749896 0  0.9092019000520907 0.7282013048376736 0  0.9381966011250106 0.7402113032590307 0  0.9687131069919539 0.7475376681190276 0  1 0.75 0  1.031286893008046 0.7475376681190276 0  1.06180339887499 0.7402113032590307 0  1.090798099947909 0.7282013048376736 0  1.117557050458495 0.7118033988749896 0  1.141421356237309 0.6914213562373095 0  1.161803398874989 0.6675570504584947 0  1.178201304837674 0.6407980999479094 0  1.190211303259031 0.6118033988749896 0  3.75 0 0  3.75 1 0  1.875 0 0  1.875 1 0  0.9375 0 0  0.9375 1 0  1.40625 1 0  5.625 1 0  5.625 0 0  2.8125 1 0  2.8125 0 0  4.6875 0 0  4.6875 1 0  6.5625 0 0  6.5625 1 0  5.15625 0.5 0  4.21875 0.5 0  2.34375 0.5 0  3.28125 0.5 0  6.09375 0.5 0  7.5 0.5 0  6.897916666666666 0.5 0  1.842708333333333 0.5 0  0 0.5 0  0.46875 0 0  5.625 0.5302734375 0  7.03125 0 0  6.09375 1 0  2.8125 0.4697265625 0  3.28125 0 0  2.34375 1 0  2.34375 0 0  3.75 0.4697265625 0  4.21875 0 0  4.21875 1 0  4.6875 0.5302734375 0  3.28125 1 0  5.15625 0 0  6.09375 0 0  5.15625 1 0  0.46875 1 0  1.40625 0 0  7.03125 1 0  0.3954638734376499 0.5975780249976004 0  6.495833333333334 0.4072265624999998 0  5.859375 0.25 0  4.905729166666666 0.26513671875 0  4.453125 0.25 0  3.531770833333333 0.73486328125 0  3.968229166666667 0.73486328125 0  2.594270833333333 0.73486328125 0  3.030729166666667 0.73486328125 0  6.328125 0.75 0  7.198958333333334 0.3125000000000002 0  7.198958333333334 0.6874999999999998 0  5.390625 0.25 0  0 0.25 0  2.109375 0.75 0  2.109375 0.25 0  1.51921323205749 0.3418883887525936 0  1.522346610178253 0.6811769608297746 0  5.375456746419271 0.75 0  4.921875 0.76513671875 0  4.437956746419271 0.75 0  3.984375 0.23486328125 0  3.500456746419271 0.25 0  2.578125 0.23486328125 0  3.046875 0.23486328125 0  5.874543253580729 0.75 0  6.642123189445656 0.6909095493086836 0  6.746354166666666 0.2391688368055553 0  0.3197109619185111 0.2850049285972083 0  6.328125 0 0  0.6313375889370429 0.2351325552547357 0  0 0.75 0  6.252283381534729 0.2693808819694041 0  0.234375 1 0  6.948437500000001 0.7543055555555555 0  0.5934018769555939 0.7694151657947577 0  1.858854166666667 0.75 0  1.858854166666667 0.25 0  1.640625 0 0  2.093229166666667 0.5 0  7.5 0.25 0  3.282227579752604 0.75 0  7.5 0.75 0  1.171875 0 0  1.303539853147731 0.2235426933121065 0  5.148177083333333 0.2575683593749998 0  2.351822916666667 0.742431640625 0  1.640625 1 0  4.202380413457425 0.7645435094236485 0  3.047822985053062 0.4701848030090332 0  2.577177014946938 0.4701848030090332 0  4.672792740482199 0.76513671875 0  4.922822985053062 0.5298151969909668 0  5.390593497949761 0.5156244924311331 0  5.610292740482199 0.76513671875 0  3.516602579752604 0.5 0  4.45496853898097 0.4865915990446593 0  5.85753146101903 0.4865915990446593 0  3.749511210123698 0.23486328125 0  3.983397420247396 0.4999999999999999 0  2.343497975411212 0.2346270081980111 0  4.219002024588788 0.2346270081980111 0  0.703125 0 0  2.8125 0.2343755075688669 0  3.046875 0 0  2.578125 0 0  3.515625 0 0  3.984375 0 0  4.453125 1 0  5.390625 1 0  2.109375 0 0  2.109375 1 0  5.625 0.2921402030705575 0  5.390625 0 0  7.265625 0 0  6.796875 0 0  6.328125 1 0  3.046875 1 0  2.578125 1 0  3.984375 1 0  3.515625 1 0  4.453125 0 0  4.921875 0 0  5.859375 0 0  0.703125 1 0  1.171875 1 0  7.265625 1 0  4.921875 1 0  5.859375 1 0  0.234375 0 0  6.796875 1 0  6.980310975276531 0.2285890127127066 0  5.149170481934885 0.772689292163473 0  3.274170481934884 0.2273107078365268 0  6.101334126790364 0.7722468376159667 0  4.678005340872584 0.3000799877067239 0  2.8125 0.6921051326382495 0  3.75 0.6921051326382495 0  0.3515624999999999 0.8134571721668546 0  0.4990405774417521 0.4070099317153735 0  0.1789273931360182 0.625 0  6.31239060814315 0.5298877111157968 0  6.456979773992304 0.1917956348713352 0  6.699870808919271 0.4406293402777773 0  1.337539480965883 0.7944303676599538 0  6.058675797563041 0.2019812164653516 0  0.8203125 0.1643029084422534 0  0.1480856513011711 0.375 0  1.090769294689562 0.1719186776982972 0  7.291088163206459 0.5 0  7.094502414936563 0.5197902199074071 0  0.6046212059042245 0.5730066483871106 0  1.707231580809486 0.6342709161352207 0  1.685961352504593 0.8193269193390785 0  1.374721602852827 0.4600373025865813 0  6.486415510043844 0.5916440776477192 0  1.5234375 0.1508863828685116 0  1.707925830421689 0.3657739208189008 0  0.1674513225045584 0.8278776664019765 0  7.138268756771176 0.1438183366439137 0  7.1484375 0.8616388888888887 0  7.328562530764119 0.819498462930605 0  4.101073710123698 0.3678637200736647 0  1.693878467219965 0.1911955120941053 0  1.577566745468488 0.5110082404081502 0  6.6796875 0.8653871806883484 0  6.498039504430512 0.825568433346395 0  0.7562556668576472 0.8333197949571929 0  4.101045914668806 0.6255195807449272 0  5.030745188395182 0.382829047309028 0  2.476364945868651 0.6095868094762166 0  2.729359843907322 0.8460525663191247 0  2.9296875 0.8740763101564099 0  3.163518307559356 0.6254622797994247 0  3.666859843907322 0.8460525663191247 0  3.8671875 0.8740763101564099 0  4.8046875 0.12592368984359 0  3.14936031382311 0.8606990583876851 0  2.4609375 0.8747622921397776 0  5.023140791101972 0.1392266772452574 0  0 0.125 0  0.1759922923594607 0.1727589856739889 0  4.5703125 0.125 0  7.327755777818006 0.1766156770456191 0  5.5078125 0.125 0  5.719712725029036 0.1460701015352787 0  4.327848962028002 0.3674169956512513 0  5.982681121544351 0.3692637923021713 0  3.398926289876302 0.6245417594909667 0  5.281756792511996 0.3827993367299961 0  2.226822645963271 0.6252438868405666 0  2.234390064317166 0.8676616584526566 0  5.2734375 0.125 0  1.96796875 0.382568359375 0  2.234651037971999 0.3674169956512511 0  1.984114583333333 0.132568359375 0  1.9921875 0.875 0  1.984114583333333 0.632568359375 0  5.748733794462357 0.8678269127183313 0  3.3984375 0.875456329184688 0  1.512925924995415 0.8582958012121853 0  1.359299372802969 0.6275861864990343 0  4.810521420483513 0.4041767793635395 0  0.2996213306116602 0.455339710363317 0  5.999933717403708 0.6388425470751088 0  5.250033449003657 0.6388713364551682 0  3.631676045992918 0.3525406652400928 0  4.3359375 0.8816499670325881 0  4.343577437052484 0.6116511299909198 0  3.375033449003656 0.3611286635448316 0  5.763152151652243 0.6249404690537395 0  4.549347848347757 0.6249404690537396 0  5.5004588702411 0.6403667365776566 0  5.976118394847484 0.8816230218343086 0  5.054722486865804 0.6338007028640954 0  3.164542163493752 0.3520519332736524 0  2.445407482032355 0.3672168403687257 0  4.8046875 0.882568359375 0  4.1015625 0.117431640625 0  2.4609375 0.117431640625 0  2.695556894938151 0.3520510350344335 0  2.929443105061849 0.3520510350344335 0  3.881979231817319 0.3670559016511187 0  3.8671875 0.117431640625 0  4.805389247695744 0.6470047893641744 0  3.399370721942191 0.1184066543556767 0  5.274370721942192 0.881593345644323 0  3.618253274934649 0.1316869186284249 0  2.6953125 0.1171877537844335 0  2.9296875 0.1171877537844335 0  2.21873344389451 0.125 0  4.3359375 0.1171877625080073 0  0.6659898565672709 0.3986593551313873 0  7.363359022954956 0.3481046411219251 0  7.363359022954956 0.6518953588780749 0  5.487719392831826 0.3828237631077121 0  2.695054578344725 0.5809158475691247 0  2.944553877887707 0.5964065668438148 0  0.3515625 0.1201898858097106 0  5.5078125 1 0  4.5703125 1 0  5.031746201297604 0.882568359375 0  3.1640625 0 0  6.2109375 1 0  6.186845385763124 0.6336356480571081 0  4.1015625 1 0  6.810399074069772 0.6495574751396682 0  0.4740615253480797 0.2509287743856873 0  7.052064303830151 0.3684417917792242 0  6.195177069665382 0.1216488332168849 0  5.72300154718324 0.4112068202852788 0  3.879157465495092 0.6111892850691246 0  3.645760045247695 0.5809158475691247 0  6.868257400485771 0.3427840810237202 0  6.612030892260864 0.1521752713064389 0  6.615666885941117 0.3151079644097221 0  4.04296875 0.8633718902669071 0  1.183031453639096 0.8486801864185936 0  6.9140625 0 0  6.859079526500421 0.1398292786950638 0  6.808232443325651 0.7957411753922057 0  6.9140625 1 0  4.544955211100143 0.3675874343205077 0  1.0546875 1 0  6.122060236165557 0.3316791557072867 0  0.5859375 0 0  5.9765625 0 0  5.44921875 0.870984788733638 0  4.51171875 0.870984788733638 0  0.7608354256382215 0.2931261274224557 0  6.386875332239937 0.3156583003094978 0  6.985654756850997 0.6147408423643147 0  6.223797257919172 0.8535621912121121 0  5.936822413218736 0.1338376546337823 0  6.23933008800134 0.4095573603773768 0  0.5414022462152697 0.1305482677949959 0  6.331360438104348 0.1370086318183389 0  0.956404929269873 0.1374266563647954 0  1.2890625 1 0  0.691305981127761 0.6764829884281737 0  3.531251607241209 0.8678916320952239 0  2.59787442813022 
[...]
<PointData  Scalars="f_71633"> 
<DataArray  type="Float64"  Name="f_71633"  format="ascii">7.6619979124220505e-01  6.0956700808207465e-01  0.0000000000000000e+00  0.0000000000000000e+00  -6.6528812977061602e-01  -9.4734253419863734e-01  -1.1923947165772417e+00  -1.1939854396193335e+00  -1.0974159985454259e+00  -1.0248042120786529e+00  -9.7226898374589776e-01  -9.8236697339523149e-01  -1.0276782096106414e+00  -1.1067652871630034e+00  -1.2571006091999994e+00  -1.4779271365601383e+00  -1.6615910367089559e+00  -1.7161071274337589e+00  -1.5003934570624939e+00  -1.1029481771105778e+00  -5.1088426165894152e-01  1.4222569144439617e-01  7.5558518216308668e-01  1.3026389192891488e+00  1.6596038823038737e+00  1.7980155492029406e+00  1.7062303849905405e+00  1.4225073480382682e+00  9.8932167154850725e-01  5.1716245607824385e-01  2.9545093008045271e-02  -4.0236322361380206e-01  -7.1146318709971668e-01  -8.9184783477192875e-01  -9.3649920871419667e-01  -8.6246256642265906e-01  -7.5775575563966624e-01  -6.7898562901642590e-01  -6.4111718924868477e-01  -6.2927166469042484e-01  -6.2268108622844842e-01  -6.2459243114389928e-01  -6.0423764046918438e-01  -5.7762870071723804e-01  8.5422455534249223e-02  1.0201383665050960e-01  -3.8343663751685447e-01  1.5990064173659224e-01  -6.0495950894156943e-02  1.4465507082208484e-01  -3.7508226616778245e-01  4.5676472397267770e-02  4.5803062373608358e-02  5.9275675910961202e-02  -2.1440180797509306e-01  7.1585326987381237e-02  6.8168776263875436e-02  2.0565133306054140e-02  3.4514121928041146e-02  5.9245833505942355e-02  8.3842844156317778e-02  -7.7591026862826540e-01  5.9595824378578952e-02  3.4941714053694062e-02  0.0000000000000000e+00  1.1755523351935793e-02  -9.1485031890346249e-02  7.2070807902305334e-01  5.8196417741415418e-01  4.7212050969898389e-02  6.1824040336120115e-03  3.8342022043831817e-02  -4.7462545318186744e-01  1.5596043564785339e-02  -6.8363839583612618e-01  2.9425676954713365e-01  9.5455659626487110e-02  8.5273359301971635e-02  8.4012397060034924e-02  7.1754151552493969e-02  1.8296578432179017e-01  5.4334747739630852e-02  3.3140577113772531e-02  5.8803334914522915e-02  7.2954526138741727e-01  -5.9205372717200633e-01  -2.1578025584534186e-02  8.3800976817961548e-01  2.2359043714211220e-02  4.1523437546400976e-02  6.5434299451369304e-02  7.6297840485972962e-02  1.1770492968106981e-01  9.3808965074641842e-02  -1.2424121139206352e+00  1.9476442189574081e-01  2.8240906035572978e-02  7.0534582009120711e-03  5.9053497128918296e-03  5.3120397225006527e-02  6.3001298672991690e-01  -3.3723551413143582e-01  -1.5160982591115038e-01  -1.6110141952893102e+00  -6.3120398050025084e-01  5.2946912750148054e-02  6.5130295916868905e-02  7.9713207252067722e-02  8.7263519574856729e-02  7.3631957674280449e-02  3.2270334156009862e-02  -1.3131420859768123e-01  4.0059511133228420e-02  1.9280197022183969e-02  1.4603863719485721e-02  6.6073577138930328e-01  2.7729945509315092e-02  5.8106582775641369e-01  7.6397602003935750e-01  2.8169029605466096e-02  7.5785372992483646e-01  7.4245328620137323e-03  8.1839596960606897e-01  1.1336625616634846e-01  -2.8965673710808199e-01  -5.4694821437011798e-01  -6.2986386719253806e-01  0.0000000000000000e+00  8.6292711676073774e-02  0.0000000000000000e+00  -4.8489185625748149e-01  -8.9531775516873358e-01  5.8323808966172098e-02  -9.2659035733069506e-01  5.3366114844661826e-02  8.6453898906563048e-02  3.1458880282194804e-02  -5.8996549922901731e-01  7.1958279661700847e-02  6.5676285011456059e-02  5.3200287397818173e-02  4.6951349878632191e-02  9.8995144641417690e-02  7.7432955163195871e-02  4.1425168861540192e-02  8.6730906138232200e-02  8.9851121693244329e-02  2.8641182412195776e-01  8.2216256512837441e-02  4.3647359104924299e-01  -4.8067154963681924e-01  -1.0404450578518611e-01  6.8935176087208255e-02  6.9575231227456388e-02  8.6839389073826115e-02  7.8812248846092781e-02  5.2435323056193042e-02  -3.5094693010037731e-02  -2.1227914005077689e-01  4.7403320396978171e-02  4.9813328314845820e-02  1.1688637106849526e-02  6.3011987942270834e-03  3.2406077025409395e-02  2.8859284020932668e-01  -6.5953992480978407e-01  9.0669572059004208e-02  1.2394690823437583e-01  7.7885894068108516e-02  6.4285060131798410e-02  3.5748173218255921e-02  6.3200653226760739e-01  -4.2676930961394371e-01  -1.3697026925710743e-02  6.1724535231400750e-02  4.1554376158894464e-02  6.0885095813100565e-01  4.8630565411986598e-02  1.0406434753531703e-02  5.9094818634192053e-02  2.2513382951785520e-02  3.5047739775304843e-02  7.1598370476808837e-02  -5.8819187991210364e-01  1.0208528721663068e-01  7.6273558025364596e-01  8.3193566498957294e-01  7.6355288497354779e-01  2.7746481729933801e-02  1.6807497102286181e-02  1.6141053899116180e-02  -7.2036308477756084e-01  3.4160475546127993e-02  1.8361344515430819e-01  6.7928334220377184e-01  -5.1719997142353902e-01  -4.2962670389164604e-04  8.6091381519428443e-03  1.1312428854255034e+00  5.4737679721337924e-02  -4.4999316580148316e-02  -2.0212606921743292e+00  2.2527146659954568e-02  -6.4620647196803660e-01  -5.1826546422320174e-01  7.6641061009513534e-01  2.2746962920965792e-03  -9.3959505640959905e-03  -1.8417029900655848e-03  8.8409164575522461e-02  -5.0147925047763120e-01  -1.9324320308416389e+00  1.8398542107741347e-02  2.4057368311764714e-02  5.8804959271835666e-01  8.8337186822952121e-02  6.1337482725058658e-02  -9.6564883525868950e-01  -4.0231084413308904e-01  2.5634429504192613e-01  4.7027410995687552e-02  1.0912128876588834e-01  9.8928038464529355e-02  6.7552008213160181e-02  2.3629754890902033e-01  -8.3764912701306093e-01  6.1411789801600329e-02  6.1111688612124970e-01  6.1616070759926989e-01  7.4224540435843922e-02  5.6745530954392656e-03  4.9085493377112134e-02  4.4291365806804157e-02  8.1897238040825299e-02  3.8192638002669102e-02  1.2002842861833297e-01  5.5588796958971551e-02  -1.0246899068901052e+00  -5.5404852069933819e-01  5.4425150777241159e-02  -3.2883382600719729e-01  -2.4141168504899879e-01  -2.2972789384379960e-01  1.4404235118697034e-01  -1.8036598714436944e-01  4.3459819158911416e-02  1.3581748008100900e-01  -3.1924263030642414e-01  -1.1841961054486727e+00  6.7549346726727855e-02  7.4742615907277921e-01  3.7778023189568029e-02  5.6377030015408593e-02  9.1861765936459575e-02  8.0542975936213346e-02  8.1502120919553903e-02  6.6485302284792464e-02  4.3153741679018587e-02  7.3687839251241560e-02  5.0044374204421239e-02  3.7870313341465317e-02  6.0724858110138835e-02  -2.0177515477057401e-03  -8.3027450246534767e-02  6.9387552210303197e-02  8.6108873469760441e-02  2.8662714798366651e-01  -4.5468898386666440e-01  -3.8549897888830392e-01  9.2204301993013021e-02  8.7585128984143404e-02  6.7396977867723723e-02  5.4466671655117226e-02  5.7705884398665128e-02  8.1328203781528677e-02  -1.3363094748127638e-01  -2.1362089079363850e-01  1.4953929503082286e-01  8.0683620374693885e-02  9.3003638615437234e-01  7.1060208256352115e-03  -1.4774722487619434e-03  4.9564739171429804e-02  -8.3311761939519535e-01  7.3574826840682325e-02  6.0418554088993426e-01  5.1125262757447137e-02  7.5173554322212011e-02  6.3709194677973036e-02  -3.5690435999444742e-02  3.3376386132834217e-02  3.1651095570889284e-02  9.2005952012624834e-02  1.3147996165345711e-02  6.4725403387797487e-01  4.3504105120402044e-03  3.2708583790568367e-02  4.3808297824279148e-02  9.6585951921892052e-02  1.0672479145586088e-01  1.1296485951368122e-02  1.4941693418533544e-02  1.4116904732151110e-02  9.2782995947712082e-02  -5.2798370289839536e-01  2.5176255525137598e-02  1.4773418345983978e-02  8.4019814486963988e-03  -2.1709426903918624e-02  7.5626099095963073e-02  -2.0120106253540920e-01  3.2143677776037383e-02  5.4545963346983539e-01  4.2437056883506914e-02  5.2251040978159746e-02  7.6012969597337263e-02  3.9560819462120250e-01  2.3406206475462064e-02  5.4116143333793722e-03  3.1945227337619134e-02  4.0255164646088935e-02  3.0997812640714443e-02  5.7286696428764083e-01  2.6232318571610833e-02  -1.5938864852745513e-01  -4.5060441319049727e-01  1.0938021953305148e+00  1.1898461683203178e-01  -7.8037439746901871e-01  -4.3465887103691458e-01  -4.2108099081448758e-01  -3.5739284189876097e-02  8.1694320475705040e-01  7.4201991486687946e-01  1.2566147212287776e-02  1.1123385249137969e-01  1.9860332103938824e-02  1.6517267318629852e-01  -5.7173670470186955e-01  -3.6311088643844881e-03  -2.9067857118698689e-03  7.0198337344741846e-01  -2.6592136406386202e-01  7.7382123417234316e-01  -9.1291035666798015e-01  7.3405029609715378e-01  5.8515413135633805e-02  8.4301252574989022e-02  4.1774026163231705e-02  -6.5792734602989289e-01  -2.2183012048684494e-01  -2.2367858738870161e-01  -3.2317734797601783e-01  -7.3396629473289510e-01  1.2953318622724574e-01  0.0000000000000000e+00  0.0000000000000000e+00  7.6617902147546135e-01  6.7363881953854965e-01  7.5173615131825655e-01  0.0000000000000000e+00  0.0000000000000000e+00  2.9078067661628779e-02  1.7826009773283868e-01  -1.0160822362613118e-02  -1.8287229032382553e+00  -1.6971968853733792e+00  -2.0164313570708654e-02  6.0938993024436716e-01  -6.7467986099667943e-01  4.3968457121843768e-01  1.4186850564908959e-02  4.4515635670250818e-02  8.5854030062930006e-02  -5.4334945521767386e-01  5.4908064450140175e-02  5.7820525832743601e-02  1.1722789124016772e-01  -1.1979299059018991e+00  6.1332133910599954e-02  -1.1015239835142203e+00  -7.5931889409874753e-01  -2.5277764375745876e-01  7.6375973798830732e-01  6.8834344187803986e-01  4.2334305302636453e-02  4.8489871943635486e-02  4.0425536071810382e-02  4.7134527628942831e-02  3.7200201734951664e-02  8.1787750272648133e-02  4.1885367669575131e-02  7.4160692083641164e-02  1.4912902257608012e-02  8.1060943874530181e-02  8.5118583084935653e-02  8.9670977308456148e-02  1.2036823428991729e-01  6.8059061545364993e-02  3.6453696626203298e-02  9.5343156540612720e-02  8.9707065449650708e-02  1.0914610639143185e-01  8.9446728932472422e-02  -6.0938232889525679e-01  4.8542313382588048e-02  6.0725155635868729e-02  6.5605192643091878e-02  -2.6033397485270326e-01  -1.3397126630885545e-01  6.7480952237051181e-02  7.2071034092264744e-02  4.7033026844401381e-02  4.7161479636174224e-02  7.0437914185041015e-02  5.0857381864987318e-02  7.3944751364335537e-02  -1.0566418217554957e-01  5.4368957736299225e-02  8.9467995908870654e-02  5.3126514346987404e-02  8.5116166122253673e-02  8.8618925856404795e-02  4.9168771008638340e-02  -5.5861892759961312e-02  8.8075686971857400e-02  1.0390120424601415e-01  3.1252809377981233e-01  2.2616090875411402e-01  8.1274936393655559e-02  7.7087231645518103e-02  7.1806139797296678e-02  -3.2523349015242686e-01  -2.9805742060499146e-01  9.5492751664762801e-02  8.4407913657929767e-02  3.3864124130930220e-02  6.0005280865265731e-01  8.0311215681798498e-02  1.6625578399920396e-01  -2.6221916240258841e-01  -1.8736592224789878e-01  -1.1323606627970688e-01  5.3074252858558262e-02  8.7047883079880969e-02  8.6537430537647217e-02  2.7283739959523673e-01  8.5650229666495936e-02  7.1362872780679626e-02  8.1221073976885286e-02  8.0095702865696089e-02  1.3470168855771930e-01  4.4192233978739393e-02  9.1585083313372451e-02  -2.1237133813917020e-01  5.7641593425032632e-02  -4.9188400822585771e-01  4.5172429382710828e-02  5.2447631382766632e-02  5.0375097315795356e-02  7.4331668329212827e-02  6.2226546820167684e-02  -7.7274212501250084e-01  2.4492164911776251e-01  6.8155342624659318e-02  9.9790112746544174e-02  1.0921726449489605e-01  2.6679069254698989e-01  -3.2078322548945104e-01  -1.3372621362807625e-02  -2.2034072189750460e-02  -4.7973564237573146e-01  -2.2290867559148567e-01  2.5692613040186896e-01  9.8153116708496312e-03  7.4648197221223533e-01  1.3678802723961301e-02  5.8528155665209032e-02  -4.6277531159998669e-01  -1.9402005698981678e-01  3.7106172199775952e-02  6.4544565748524393e-02  4.4496171299102422e-01  -4.7896457478903193e-01  1.3953953322763684e-02  2.4524458699721516e-02  2.1010946621742809e-02  8.5985425634126245e-03  4.1860509754254854e-03  -5.6367715682239905e-01  9.0748943728952884e-04  -7.7678342461672634e-01  6.8397976864273305e-02  7.1326409162342022e-02  7.4367049079576822e-02  -7.5005249377738227e-03  -1.1139144911465793e-01  -6.0808534304823181e-01  -8.4846176421036712e-01  9.8577156221987774e-02  -3.3818434461994573e-01  3.7146157155033895e-02  3.8375250908448490e-02  4.1752976397791457e-02  6.2125061678178384e-02  5.8022436935257216e-02  1.4041143487026933e-02  5.5952797946220774e-02  5.6641589646371428e-02  6.3565343913461012e-02  2.5116107673560938e-02  8.2737892871036722e-02  -7.1688176976857410e-01  6.3116478090115479e-03  2.6438883333933988e-02  -9.9914451373488211e-01  3.2524790976383562e-02  9.9460205030966906e-02  9.9424624351679730e-02  9.8276427945722070e-02  -6.2521130106996703e-01  1.1247777485421800e-01  -1.0984828887449747e+00  9.2625845033130774e-02  -7.2337984720641735e-01  8.5124076636143464e-02  6.5116515530115646e-02  1.3141245458803524e-01  3.1419536932988421e-02  -8.9428950370010585e-01  7.5676266366865297e-01  2.6752288261613855e-01  6.8279273236072635e-02  8.7858849691876920e-02  2.2998774847779672e-02  2.0533140637034767e-02  6.5248600217310299e-02  7.3906565873270569e-01  7.6117134422286381e-01  7.8756034866079583e-01  4.3452279961757379e-02  3.9568218132877184e-02  7.7195293327136968e-02  8.2299666206615729e-01  7.3355794408497488e-01  7.3154988523629194e-01  -4.5929298526002993e-01  -6.8219270876997418e-01  1.2272652899215248e-02  1.0278669139150107e-01  2.3796496750570006e-02  -2.3717974425404667e-01  4.6484859344600976e-02  9.5162978228128281e-01  9.3391411352147380e-01  7.1811943863870631e-02  -5.0583738679491785e-01  1.3390864107428807e-01  4.3010182128514880e-02  -2.1083220329961603e+00  -1.1434031092356987e-03  8.6461034628397397e-04  -3.4307077697299862e-02  1.8748410990574251e-02  1.7367781266885908e-02  1.0232688835707687e-02  3.5645637787959185e-02  7.8942670853396485e-02  5.2472929031733936e-02  1.3558769581657075e+00  3.3713760000331015e-02  3.7270921981893489e-02  -4.9081344929336555e-03  6.4120762325560410e-01  6.4031603233524148e-01  6.9271227231695764e-01  1.0639916917530672e-02  1.3765367051981867e-02  7.0162593073245752e-02  -5.0112592243802356e-01  6.1949969037982033e-01  -5.5318296568554082e-01  -7.3801862310034305e-01  2.5790977547436814e-02  -1.5822719617090340e-04  8.7177720633845324e-03  1.9946985907778918e-02  9.8540684606039286e-01  1.0177444079505581e-01  7.9551055275183458e-01  -1.4566470146209538e+00  -1.5140966638104278e+00  1.2261677163719200e-02  5.8838646863471067e-02  -1.2932487667285968e+00  2.6540030749114714e-02  -2.4710536399233568e-02  7.4166858683635395e-01  7.0706027592481779e-01  1.0628269604910963e-01  7.3200186448848320e-02  9.1654670428956850e-02  -1.1847835681056892e-03  -5.5363261044291039e-04  -8.1834310301963590e-03  5.1475638333761649e-03  2.9065568407871810e-03  -3.6291565325987163e-01  6.0734918047021380e-01  -2.1435480101908277e-02  5.7345888944647469e-02  2.4226700002937925e-02  -7.8609106260649375e-01  -9.9951164177712970e-01  -3.8301991126850188e-01  5.8842451171934329e-01  -4.0782782865655365e-01  9.8226871590008380e-01  2.6935361151031484e-02  3.5131878067413497e-02  1.8984356047525231e-02  2.9790655005168802e-02  4.8029954272429773e-02  -4.7491303331020362e-02  -5.4861421289507991e-03  -1.2506737183532799e-02  4.2677455095448636e-03  -7.3326220638023501e-03  5.1759391123957074e-03  7.4562738966158626e-01  7.6193179193531146e-01  7.6572422465256373e-01  3.6460633216763773e-02  1.5685942543298281e-01  -5.2955970769924809e-01  4.6847423075834990e-02  6.1123176680155744e-01  2.6164514064404024e-02  7.6555939838190579e-01  9.6978870098813445e-03  1.9846616163359958e-02  4.6168616252059346e-03  1.1142814315197331e-02  6.1947334493636896e-01  2.7116100393465298e-01  2.9609102549877236e-02  -5.9092288223725187e-01  3.3718176043744587e-02  2.0531941559889719e-02  3.6576681030848620e-03  -8.1527099683048295e-04  6.1515808608423594e-01  7.1826827886728492e-02  9.3723187045760045e-03  5.5227282971955571e-01  1.9253176672869750e-02  7.9072679138582924e-01  1.3440876154354025e-02  -2.4908838861493299e-01  8.6420514908250812e-02  -6.6718437552404142e-01  -1.0207560628168262e+00  4.3700015072214260e-01  2.1007878099259518e-02  8.5812424040965160e-02  8.8783729667186367e-02  7.0753518970384621e-02  9.3420417346350329e-02  7.9215171669683906e-02  3.4645273316733305e-01  7.1617347255874320e-01  5.4518505852129300e-02  -9.8703998609544752e-01  1.1462573538983972e-01  -5.3567216165557197e-01  1.0650341759962718e-01  2.8905216379006993e-02  4.1546523369783185e-02  2.7754922954941253e-03  1.5254823004013459e-02  1.1204893254985950e-02  5.3288709994553599e-03  9.3397112534820165e-02  2.7754403006295164e-01  -3.1407230465198543e-01  7.4314584041262288e-02  4.4180885306224306e-02  4.2759451608252820e-02  3.6180710945030781e-02  -4.1097094047865971e-03  6.3768844105027950e-02  6.0152283448856321e-02  8.6147111335524787e-02  2.6878912748449052e-01  4.0348490936065233e-02  -9.8751195384015422e-01  -1.1174059893263988e+00  2.9247621165267762e-01  2.2955575067076131e-01  6.6012839839159287e-02  7.8974385859215335e-01  1.2532420143945350e-01  5.5961653774196797e-02  5.4705520162510277e-02  8.3986563187550572e-02  -2.3791690994529166e-01  -3.4944478839612958e-01  7.7975289959753086e-02  6.0692611805190380e-02  5.9878452291503126e-02  6.4116122184101829e-02  -1.4819992967340820e-01  -1.8078897167795183e-01  1.2675478255067268e-02  -4.2386665005277857e-01  -5.6050449036928196e-01  -2.2561673571292917e-01  -2.4057159752481000e-01  -3.3086201590745301e-01  -7.4294384895271459e-01  -4.5903774948219417e-01  -9.9507354762915334e-01  1.7019688046782436e-03  3.8610973136974647e-02  3.8192175441945864e-02  3.6605588558916227e-02  -8.6939385312772999e-01  -7.6181534068912171e-01  5.8019222791082931e-02  3.2393335209194497e-02  1.0501153342875826e-01  1.0332713980947694e-01  9.0796578378304849e-02  -7.1130685265979476e-01  -1.1009363509975909e+00  -1.0542498850708171e+00  5.3841608236771948e-02  5.1283018444774453e-02  -4.4913170166008987e-02  7.6619154529787944e-02  -7.2637781352493311e-02  5.6811644212218286e-02  5.7020567439051109e-02  1.6358144615082387e-01  1.4442176241689289e-01  1.2470047600007356e-01  1.5460505264733113e-01  4.8352912365886305e-02  7.1315928085262359e-01  1.2716624997902176e-01  1.3596892790132817e+00  -5.6026938669875370e-01  -6.3360690128798658e-01  -2.2115548434310350e-01  -7.7606613968082327e-01  -2.6053921017680026e-01  -9.1018765547305258e-01  1.2358034475539255e+00  -5.2997275684985068e-01  1.1504190108460635e+00  -1.0002128917795936e+00  -8.9226827812380771e-01  -1.3742866508432490e+00  -1.0322650714294634e+00  1.6197722605619624e+00  -6.4280120084149905e-01  2.6043462832003006e-01  -6.2076295813095761e-01  -1.5072910973483963e-01  -8.5866983220217696e-01  -1.1000964976190055e+00  -3.1406090951203841e-01  9.2693699870025270e-01  -6.2212985065810567e-01  -6.5088866614411467e-01  1.4872075298441285e+00  7.2007922135924396e-01  -7.8032282300714795e-01  -5.9540849139275409e-01  -7.2952804509291203e-01  -1.0778644035578675e+00  -8.5032837909516423e-01  -1.2073696332051118e+00  -1.2163520442083908e+00  -9.8331280924849229e-01  -1.1441781819659440e+00  -1.2169205236208971e+00  -1.0944300143415220e+00  -1.0581769914930381e+00  -1.0583117676032829e+00  -9.9458235806459949e-01  -1.0307267344455515e+00  -9.6987103831624100e-01  -9.5963048588411826e-01  -1.0109339787070117e+00  -1.0027277703961472e+00  -9.7044205868058619e-01  -1.0100873855939496e+00  -1.0608314144041804e+00  -1.0292172304522031e+00  -1.1729626051471975e+00  -1.0574490247047710e+00  -1.1941803541177223e+00  -1.3612612894039033e+00  -1.2620069813650612e+00  -1.5596891082292754e+00  -1.3317945339728379e+00  -1.6605896893388767e+00  -1.3451851835016326e+00  -1.4035037126813250e+00  -1.5830354794104256e+00  -1.3117854842502816e+00  -1.2545217839829337e+00  -7.3764308014687108e-01  -1.2659214661718428e+00  -8.2151167194069641e-01  -7.7126710940873144e-01  -5.7743164992131757e-01  -1