<?xml version="1.0"?>
<VTKFile type="UnstructuredGrid"  version="0.1"  >
<UnstructuredGrid>
<Piece  NumberOfPoints="4269" NumberOfCells="8234">
<Points>
<DataArray  type="Float64"  NumberOfComponents="3"  format="ascii">0 1 0  0 0 0  7.5 0 0  7.5 1 0  1.197537668119028 0.5812868930080463 0  1.2 0.55 0  1.197537668119028 0.5187131069919538 0  1.190211303259031 0.4881966011250105 0  1.178201304837674 0.4592019000520907 0  1.161803398874989 0.4324429495415054 0  1.141421356237309 0.4085786437626905 0  1.117557050458495 0.3881966011250105 0  1.090798099947909 0.3717986951623264 0  1.06180339887499 0.3597886967409693 0  1.031286893008046 0.3524623318809725 0  1 0.35 0  0.9687131069919538 0.3524623318809725 0  0.9381966011250105 0.3597886967409694 0  0.9092019000520906 0.3717986951623264 0  0.8824429495415054 0.3881966011250105 0  0.8585786437626904 0.4085786437626905 0  0.8381966011250105 0.4324429495415054 0  0.8217986951623264 0.4592019000520907 0  0.8097886967409692 0.4881966011250107 0  0.8024623318809725 0.5187131069919539 0  0.8 0.55 0  0.8024623318809725 0.5812868930080463 0  0.8097886967409693 0.6118033988749896 0  0.8217986951623264 0.6407980999479095 0  0.8381966011250105 0.6675570504584947 0  0.8585786437626906 0.6914213562373096 0  0.8824429495415054 0.7118033988749896 0  0.9092019000520907 0.7282013048376736 0  0.9381966011250106 0.7402113032590307 0  0.9687131069919539 0.7475376681190276 0  1 0.75 0  1.031286893008046 0.7475376681190276 0  1.06180339887499 0.7402113032590307 0  1.090798099947909 0.7282013048376736 0  1.117557050458495 0.7118033988749896 0  1.141421356237309 0.6914213562373095 0  1.161803398874989 0.6675570504584947 0  1.178201304837674 0.6407980999479094 0  1.190211303259031 0.6118033988749896 0  3.75 0 0  3.75 1 0  1.875 0 0  1.875 1 0  0.9375 0 0  0.9375 1 0  1.40625 1 0  5.625 1 0  5.625 0 0  2.8125 1 0  2.8125 0 0  4.6875 0 0  4.6875 1 0  6.5625 0 0  6.5625 1 0  5.15625 0.5 0  4.21875 0.5 0  2.34375 0.5 0  3.28125 0.5 0  6.09375 0.5 0  7.5 0.5 0  6.897916666666666 0.5 0  1.842708333333333 0.5 0  0 0.5 0  0.46875 0 0  5.625 0.5302734375 0  7.03125 0 0  6.09375 1 0  2.8125 0.4697265625 0  3.28125 0 0  2.34375 1 0  2.34375 0 0  3.75 0.4697265625 0  4.21875 0 0  4.21875 1 0  4.6875 0.5302734375 0  3.28125 1 0  5.15625 0 0  6.09375 0 0  5.15625 1 0  0.46875 1 0  1.40625 0 0  7.03125 1 0  0.3954638734376499 0.5975780249976004 0  6.495833333333334 0.4072265624999998 0  5.859375 0.25 0  4.905729166666666 0.26513671875 0  4.453125 0.25 0  3.531770833333333 0.73486328125 0  3.968229166666667 0.73486328125 0  2.594270833333333 0.73486328125 0  3.030729166666667 0.73486328125 0  6.328125 0.75 0  7.198958333333334 0.3125000000000002 0  7.198958333333334 0.6874999999999998 0  5.390625 0.25 0  0 0.25 0  2.109375 0.75 0  2.109375 0.25 0  1.51921323205749 0.3418883887525936 0  1.522346610178253 0.6811769608297746 0  5.375456746419271 0.75 0  4.921875 0.76513671875 0  4.437956746419271 0.75 0  3.984375 0.23486328125 0  3.500456746419271 0.25 0  2.578125 0.23486328125 0  3.046875 0.23486328125 0  5.874543253580729 0.75 0  6.642123189445656 0.6909095493086836 0  6.746354166666666 0.2391688368055553 0  0.3197109619185111 0.2850049285972083 0  6.328125 0 0  0.6313375889370429 0.2351325552547357 0  0 0.75 0  6.252283381534729 0.2693808819694041 0  0.234375 1 0  6.948437500000001 0.7543055555555555 0  0.5934018769555939 0.7694151657947577 0  1.858854166666667 0.75 0  1.858854166666667 0.25 0  1.640625 0 0  2.093229166666667 0.5 0  7.5 0.25 0  3.282227579752604 0.75 0  7.5 0.75 0  1.171875 0 0  1.303539853147731 0.2235426933121065 0  5.148177083333333 0.2575683593749998 0  2.351822916666667 0.742431640625 0  1.640625 1 0  4.202380413457425 0.7645435094236485 0  3.047822985053062 0.4701848030090332 0  2.577177014946938 0.4701848030090332 0  4.672792740482199 0.76513671875 0  4.922822985053062 0.5298151969909668 0  5.390593497949761 0.5156244924311331 0  5.610292740482199 0.76513671875 0  3.516602579752604 0.5 0  4.45496853898097 0.4865915990446593 0  5.85753146101903 0.4865915990446593 0  3.749511210123698 0.23486328125 0  3.983397420247396 0.4999999999999999 0  2.343497975411212 0.2346270081980111 0  4.219002024588788 0.2346270081980111 0  0.703125 0 0  2.8125 0.2343755075688669 0  3.046875 0 0  2.578125 0 0  3.515625 0 0  3.984375 0 0  4.453125 1 0  5.390625 1 0  2.109375 0 0  2.109375 1 0  5.625 0.2921402030705575 0  5.390625 0 0  7.265625 0 0  6.796875 0 0  6.328125 1 0  3.046875 1 0  2.578125 1 0  3.984375 1 0  3.515625 1 0  4.453125 0 0  4.921875 0 0  5.859375 0 0  0.703125 1 0  1.171875 1 0  7.265625 1 0  4.921875 1 0  5.859375 1 0  0.234375 0 0  6.796875 1 0  6.980310975276531 0.2285890127127066 0  5.149170481934885 0.772689292163473 0  3.274170481934884 0.2273107078365268 0  6.101334126790364 0.7722468376159667 0  4.678005340872584 0.3000799877067239 0  2.8125 0.6921051326382495 0  3.75 0.6921051326382495 0  0.3515624999999999 0.8134571721668546 0  0.4990405774417521 0.4070099317153735 0  0.1789273931360182 0.625 0  6.31239060814315 0.5298877111157968 0  6.456979773992304 0.1917956348713352 0  6.699870808919271 0.4406293402777773 0  1.337539480965883 0.7944303676599538 0  6.058675797563041 0.2019812164653516 0  0.8203125 0.1643029084422534 0  0.1480856513011711 0.375 0  1.090769294689562 0.1719186776982972 0  7.291088163206459 0.5 0  7.094502414936563 0.5197902199074071 0  0.6046212059042245 0.5730066483871106 0  1.707231580809486 0.6342709161352207 0  1.685961352504593 0.8193269193390785 0  1.374721602852827 0.4600373025865813 0  6.486415510043844 0.5916440776477192 0  1.5234375 0.1508863828685116 0  1.707925830421689 0.3657739208189008 0  0.1674513225045584 0.8278776664019765 0  7.138268756771176 0.1438183366439137 0  7.1484375 0.8616388888888887 0  7.328562530764119 0.819498462930605 0  4.101073710123698 0.3678637200736647 0  1.693878467219965 0.1911955120941053 0  1.577566745468488 0.5110082404081502 0  6.6796875 0.8653871806883484 0  6.498039504430512 0.825568433346395 0  0.7562556668576472 0.8333197949571929 0  4.101045914668806 0.6255195807449272 0  5.030745188395182 0.382829047309028 0  2.476364945868651 0.6095868094762166 0  2.729359843907322 0.8460525663191247 0  2.9296875 0.8740763101564099 0  3.163518307559356 0.6254622797994247 0  3.666859843907322 0.8460525663191247 0  3.8671875 0.8740763101564099 0  4.8046875 0.12592368984359 0  3.14936031382311 0.8606990583876851 0  2.4609375 0.8747622921397776 0  5.023140791101972 0.1392266772452574 0  0 0.125 0  0.1759922923594607 0.1727589856739889 0  4.5703125 0.125 0  7.327755777818006 0.1766156770456191 0  5.5078125 0.125 0  5.719712725029036 0.1460701015352787 0  4.327848962028002 0.3674169956512513 0  5.982681121544351 0.3692637923021713 0  3.398926289876302 0.6245417594909667 0  5.281756792511996 0.3827993367299961 0  2.226822645963271 0.6252438868405666 0  2.234390064317166 0.8676616584526566 0  5.2734375 0.125 0  1.96796875 0.382568359375 0  2.234651037971999 0.3674169956512511 0  1.984114583333333 0.132568359375 0  1.9921875 0.875 0  1.984114583333333 0.632568359375 0  5.748733794462357 0.8678269127183313 0  3.3984375 0.875456329184688 0  1.512925924995415 0.8582958012121853 0  1.359299372802969 0.6275861864990343 0  4.810521420483513 0.4041767793635395 0  0.2996213306116602 0.455339710363317 0  5.999933717403708 0.6388425470751088 0  5.250033449003657 0.6388713364551682 0  3.631676045992918 0.3525406652400928 0  4.3359375 0.8816499670325881 0  4.343577437052484 0.6116511299909198 0  3.375033449003656 0.3611286635448316 0  5.763152151652243 0.6249404690537395 0  4.549347848347757 0.6249404690537396 0  5.5004588702411 0.6403667365776566 0  5.976118394847484 0.8816230218343086 0  5.054722486865804 0.6338007028640954 0  3.164542163493752 0.3520519332736524 0  2.445407482032355 0.3672168403687257 0  4.8046875 0.882568359375 0  4.1015625 0.117431640625 0  2.4609375 0.117431640625 0  2.695556894938151 0.3520510350344335 0  2.929443105061849 0.3520510350344335 0  3.881979231817319 0.3670559016511187 0  3.8671875 0.117431640625 0  4.805389247695744 0.6470047893641744 0  3.399370721942191 0.1184066543556767 0  5.274370721942192 0.881593345644323 0  3.618253274934649 0.1316869186284249 0  2.6953125 0.1171877537844335 0  2.9296875 0.1171877537844335 0  2.21873344389451 0.125 0  4.3359375 0.1171877625080073 0  0.6659898565672709 0.3986593551313873 0  7.363359022954956 0.3481046411219251 0  7.363359022954956 0.6518953588780749 0  5.487719392831826 0.3828237631077121 0  2.695054578344725 0.5809158475691247 0  2.944553877887707 0.5964065668438148 0  0.3515625 0.1201898858097106 0  5.5078125 1 0  4.5703125 1 0  5.031746201297604 0.882568359375 0  3.1640625 0 0  6.2109375 1 0  6.186845385763124 0.6336356480571081 0  4.1015625 1 0  6.810399074069772 0.6495574751396682 0  0.4740615253480797 0.2509287743856873 0  7.052064303830151 0.3684417917792242 0  6.195177069665382 0.1216488332168849 0  5.72300154718324 0.4112068202852788 0  3.879157465495092 0.6111892850691246 0  3.645760045247695 0.5809158475691247 0  6.868257400485771 0.3427840810237202 0  6.612030892260864 0.1521752713064389 0  6.615666885941117 0.3151079644097221 0  4.04296875 0.8633718902669071 0  1.183031453639096 0.8486801864185936 0  6.9140625 0 0  6.859079526500421 0.1398292786950638 0  6.808232443325651 0.7957411753922057 0  6.9140625 1 0  4.544955211100143 0.3675874343205077 0  1.0546875 1 0  6.122060236165557 0.3316791557072867 0  0.5859375 0 0  5.9765625 0 0  5.44921875 0.870984788733638 0  4.51171875 0.870984788733638 0  0.7608354256382215 0.2931261274224557 0  6.386875332239937 0.3156583003094978 0  6.985654756850997 0.6147408423643147 0  6.223797257919172 0.8535621912121121 0  5.936822413218736 0.1338376546337823 0  6.23933008800134 0.4095573603773768 0  0.5414022462152697 0.1305482677949959 0  6.331360438104348 0.1370086318183389 0  0.956404929269873 0.1374266563647954 0  1.2890625 1 0  0.691305981127761 0.6764829884281737 0  3.531251607241209 0.8678916320952239 0  2.59787442813022 
[...]
<PointData  Scalars="f_71633"> 
<DataArray  type="Float64"  Name="f_71633"  format="ascii">8.8438385197349045e-01  7.7538697542508628e-01  0.0000000000000000e+00  0.0000000000000000e+00  -6.0995976420984099e-01  -7.0760230910651423e-01  -7.8713023218208378e-01  -9.0605178236745321e-01  -1.0193257254714494e+00  -1.0829838417329016e+00  -1.1112317587566336e+00  -1.1233251896146992e+00  -1.1379140850630285e+00  -1.1791002399465635e+00  -1.2604491629693515e+00  -1.3757858748645710e+00  -1.4452558694225739e+00  -1.3999305142227336e+00  -1.1369585918393228e+00  -7.2119137352087426e-01  -1.4608745640490242e-01  4.8163364113572382e-01  1.0697518499527696e+00  1.5785876996051651e+00  1.8987909348031855e+00  1.9976448040147357e+00  1.8612162684730145e+00  1.5285292197090730e+00  1.0336148472277977e+00  5.0261194964129596e-01  -5.8380663490122088e-02  -5.7291945323301707e-01  -9.4394867733843990e-01  -1.1581239722214953e+00  -1.1987014697369678e+00  -1.0436781178821402e+00  -8.1728967081203296e-01  -6.2408728982249895e-01  -5.0262562460706262e-01  -4.3911697172099157e-01  -3.9463108954638643e-01  -3.8853153059419804e-01  -4.4913001186946166e-01  -5.0890008275537379e-01  2.9843150280453351e-01  3.0528254848025149e-01  5.3080891340173508e-01  -1.0598024986410248e-01  6.0678775256699340e-02  4.1757612155994855e-01  1.8140859717739449e-01  4.3607112328505937e-01  -1.7373755700439925e-01  -1.0366320497668113e-02  5.5963384949894379e-01  -3.0322473036726522e-01  4.0374105796951038e-01  1.6252552598963260e-01  2.1733103002216086e-01  -1.0816111225135954e+00  -6.6559158952369601e-01  1.3440012715575764e-01  -3.8203099418775588e-01  -4.3347025827181307e-01  0.0000000000000000e+00  -1.5494876544424754e-01  -1.0310299322877976e+00  8.6364147860072094e-01  6.9207119901006464e-01  1.2929020291707321e-02  -5.4159281151314924e-03  -1.3495328582926749e-01  -6.1120697726690831e-01  3.8323048739072324e-01  4.3379640706599920e-01  -1.0294216636983032e-01  -2.2441709631728576e-01  1.6839607465945702e-01  -1.1146417833624224e-01  1.7024216242231863e-01  4.0936014671850213e-01  3.8339228467275799e-01  2.4460751775564490e-01  -3.0671232527209963e-01  9.1700253736463710e-01  1.9332321036866284e-02  4.5066517702394371e-01  9.8517612336308269e-01  -6.9275442263446910e-02  -2.4464295144087614e-01  -2.8329996407400115e-01  -2.0212295835658711e-01  4.1921530997151063e-01  -1.1112012485672640e+00  3.5416206859449501e-01  -1.0668754231365891e+00  -8.5075321269078796e-01  -6.0747107422892264e-02  -2.9951742986356544e-01  1.5696746196544537e-01  7.9756252846147180e-01  8.1973637577489086e-02  -1.4867690152948007e-01  5.0642515164415336e-01  -1.1257496240593670e+00  -1.5474048734091489e-01  -9.5641949921329808e-02  2.3221195515739176e-01  1.9898134894386571e-01  -3.2082982680618688e-01  -8.1160151782047130e-01  2.6227761134943700e-01  2.6051231028207633e-01  2.5864519248959761e-01  -3.2043526189905824e-01  8.1296150391674882e-01  2.9131494284177761e-01  6.9197575016793078e-01  8.8312731121706800e-01  1.8384568591499065e-01  8.8996180806989422e-01  4.1882745054413811e-01  1.0107000758142524e+00  -2.7758588435355469e-01  1.3263243145945577e-01  4.9804012868644548e-01  -8.5269573960417444e-01  0.0000000000000000e+00  4.1768222242119873e-02  0.0000000000000000e+00  -2.2689814340405745e-01  -4.2113891884055277e-01  2.2812832814533104e-01  4.2618539258418087e-01  -2.3752165166335831e-01  -6.1357816320325109e-01  -1.6896941030914505e+00  -4.4403404088687710e-02  4.4547917867694625e-01  -3.0167183555099486e-01  -4.2220001456624384e-01  3.8840050581265823e-01  2.1362910057148754e-01  -1.6257942379284952e-02  -1.3041095785934603e-01  9.7866402375950082e-02  -1.4951042582273457e+00  -1.2196830293590853e-01  2.0238524314327069e-02  5.1621697309326264e-01  -1.7214409496684205e-01  6.5800530904718169e-01  -7.9746568963164333e-01  -1.6002289207572098e-03  3.4554459016043099e-01  3.4534304211716516e-01  3.0159904178124908e-01  1.0262269483688878e-01  2.4725609850075600e-01  -4.3865728846374302e-01  2.8187132689549177e-01  9.5513754447472260e-02  -2.0132986186869281e-01  -2.9237836180182508e-01  -2.3057796752095874e-01  3.8172063699004899e-01  -1.7426956499621013e-01  4.8850904801293665e-01  -1.0832948663464703e-01  1.4513760277069696e-01  -7.7773040882896119e-02  8.7926211646557639e-01  1.5654151033626473e-01  7.3527537400525977e-02  1.1447146086757830e-01  3.6912683240168020e-01  7.6175074450953006e-01  3.5633311070006907e-01  -2.6387648828052951e-01  -8.6036406015769951e-01  2.4230529304406317e-01  -4.8259901884241646e-01  -5.8393432353195918e-01  -4.7385290548563080e-01  8.8608585759525876e-02  9.0638975207911776e-01  9.8166419979998198e-01  8.9307256798889145e-01  -6.9331914161002872e-01  2.6280587773401354e-01  -1.8165142048689184e-01  -2.1645765363950825e-01  1.6877339575946887e-01  2.8173370608038850e-01  8.3671099143877925e-01  -3.9526248001045949e-01  -3.7994603737263732e-01  -2.5199895706268588e-01  1.3002161895564457e+00  -4.6644326704370620e-01  -5.3737454495218118e-01  -1.2732849427758242e+00  -5.0391333525666571e-01  4.0282630920225937e-01  2.4235168275680974e-01  8.8527269203867209e-01  1.3145558126959100e-01  2.0022140657822271e-01  -9.9931046454009687e-01  -4.5638006444779877e-01  6.0376513253294406e-01  -1.2556716918854238e+00  4.6069007334858464e-01  -9.1588919731030657e-02  7.9398885880008352e-01  -1.5385044522409599e+00  -2.6297013987648848e-01  2.6597450811125362e-01  1.7006948175942746e-01  -3.5493800002167591e-01  -1.2166963293212316e+00  3.9705183866408172e-01  2.2730518836105464e-02  -2.7060493633391358e-01  -1.6405619145154718e-01  4.4718499992020899e-01  4.0717224341339531e-01  7.7740062549659894e-01  7.8123054427382632e-01  -2.7972065622305398e-01  1.2032999302211966e-01  5.1811115302206306e-02  -3.3343522384613572e-01  -1.7399753496259765e-01  -1.6233748476997623e-01  2.8406755633452241e-01  -3.5909005243800873e-01  2.2838371533807028e-01  3.9633354140881155e-01  3.6430972508103282e-01  -1.1617721155516230e+00  -1.1670196940239295e-01  3.9512235404381968e-01  1.2276284122923118e-03  -1.3328648161342653e+00  4.3626158200867676e-01  4.7782378408836967e-01  -2.4988568385728004e-02  -1.4418340753462797e+00  -2.3518919243916539e-01  8.9912412205941883e-01  -1.5994755048306769e-01  -1.2229125591194128e+00  -2.4089255771836462e-01  1.0736491676813732e-01  -2.8701155257493238e-01  -2.3008042764299833e-01  2.4726395227168477e-01  2.3580973945081271e-01  5.9833093979404256e-02  1.8878513569945590e-01  -9.7166381688519277e-01  -2.4710437253017381e-01  -1.1460289181804895e-01  3.2796452495117412e-01  2.9520518229153025e-01  -3.4304103438467864e-01  -3.8123192057612221e-01  -3.6393452384300978e-01  -7.2373944133837090e-02  4.6251241249353542e-01  1.5472441652257349e-01  1.0440864276766067e-01  -1.9241921703651982e-01  1.2121594538849267e-02  -7.3614932915901099e-01  6.6558889619171802e-01  -8.1954189187435342e-02  4.3832537844349574e-02  1.0931534755458390e+00  3.0850332379368673e-02  -7.0355121398272646e-01  -2.2537045430820779e-01  -6.9784737404939970e-02  -1.7252237119854394e+00  7.4303421534901670e-01  4.2794094704008806e-01  4.3586324771024332e-01  -2.5466163288349941e-01  5.8042421070150219e-01  -3.2141458539559820e-01  -9.3124477266036565e-01  -3.6802403282691803e-01  3.1034706997783912e-01  7.7909076903878627e-01  -1.6481988113802767e-01  3.2833145032371847e-01  -2.9219875113185811e-01  -1.0223708168491992e+00  3.4386605016925170e-01  -5.1736670818396280e-01  -1.3825235218599146e-02  -1.8943618141064289e-01  -5.2559964582258367e-01  -1.0870396015974004e-01  -1.3874813632384464e-01  -3.0323042324230576e-01  4.6015852953079917e-01  6.2097677160479692e-01  -2.3409547579282228e-01  1.3708915240295164e-01  6.7400845640426005e-02  6.2772734673857933e-01  1.6111562596985290e-01  3.1074200010994285e-01  3.9268339160997612e-01  5.4135723530430491e-01  5.4449904528798547e-02  1.1500925191241784e-01  -5.4204708322307871e-01  6.4885382436140102e-02  -2.0994525584594426e-01  6.7358646533139599e-01  2.8085833768597485e-01  -5.2559590488038356e-02  1.4214361055168917e-01  1.2715448508681397e+00  4.5371861817342241e-01  3.9175478467816355e-01  -4.7986839759962341e-01  5.9387985786167541e-01  5.1370453335847055e-01  9.7686639083123106e-01  9.2444077377444789e-01  -3.0640007154151544e-01  -2.7823112098648162e-01  -1.3853604087551080e-01  3.5088526169899503e-01  -3.0452492359229955e-01  4.6602152392778345e-01  8.3479490983818627e-02  9.1519479455068919e-01  -2.0755723412403383e-02  8.9790943220941999e-01  -1.2762746030236340e+00  8.7736330212577129e-01  5.0561405722259700e-01  -4.5924799599933680e-01  -9.3284916842577092e-01  -5.0188422460608006e-01  -3.9532910594197446e-01  -6.8998568985531833e-02  -1.7736196301912479e+00  7.1778571535087293e-03  3.2642259988659311e-01  0.0000000000000000e+00  0.0000000000000000e+00  8.8362055428530262e-01  8.3118787553933637e-01  8.7856803780872750e-01  0.0000000000000000e+00  0.0000000000000000e+00  -3.6466407430349362e-01  2.9644447653932349e-01  3.9411895742114716e-01  -1.7513300249668535e+00  -3.6757833460496586e-01  3.5311882013541795e-01  7.7261475523316703e-01  2.4079828082389173e-02  5.2330601787174946e-01  -1.8493513947443940e-01  4.0199874718373640e-01  -7.7653405985703361e-01  -4.9513662473944248e-01  2.5367914143423309e-01  -4.0718772267748221e-01  -3.9070983084372457e-01  3.2440175416753414e-01  2.1960887743208277e-01  4.3275146340322290e-01  3.7142320060061956e-01  2.4341543948496142e-01  8.8426106588968656e-01  9.0862843754326938e-01  -4.4899182735309312e-01  -8.7438988629749623e-02  7.8609288557506152e-02  -2.2896315815039667e-01  -2.1864770712056247e-01  -3.1699681872524382e-01  -2.6491514868668942e-01  8.9670431004856443e-02  6.5866890968629729e-02  -1.8445521807400000e-01  -3.2615584654641466e-01  -1.2165840786499948e+00  -5.3672153809544454e-01  3.1005235913287310e-01  -2.7812007811876832e-01  -8.8968439096676533e-01  1.5405043417707123e-01  4.0431196025488908e-01  -1.3970531755177225e+00  6.4531234828503828e-02  -1.1257801642352760e+00  -7.2766638713604503e-01  -3.4875209471866880e-01  -2.6914547488254709e-01  -1.3247288942237456e+00  1.1721166958704088e-02  3.8616162156699507e-01  2.9370395493643203e-01  4.6281993207183503e-01  4.2631979095684835e-01  3.5991787658286056e-01  4.6474370725771119e-01  -3.5003527607873963e-01  -9.9297146085964338e-01  -4.5746551237826876e-03  -5.5977052134197214e-01  2.9352615757564521e-01  1.7969296414839159e-01  7.0421395676647569e-02  8.7860784274200868e-02  1.6281912787040936e-01  -2.0872282004388953e-01  -7.8912772209197318e-02  -3.1959410626395496e-01  -3.2757768059561328e-02  -1.4588047323666642e-01  -3.6029869030717532e-01  1.7523268041668494e-01  -7.2675957242587907e-01  -9.6514332596738062e-01  1.4500243450081518e-01  2.9317688177634571e-01  7.3433423686804167e-01  5.4713987281268597e-02  -4.3734734011735700e-02  2.3755693850430226e-01  8.6677920920866791e-01  -2.6998784326942193e-01  1.6439523282071578e-01  3.5380666210083300e-01  4.2720613067445334e-01  -3.4361131219199076e-01  3.4024964372772998e-01  2.8851309698676469e-01  1.3216316983328763e-01  1.2558077432407597e-01  5.0668495978790196e-01  4.1454163541776107e-01  5.8501087574968316e-02  3.9106947351841226e-01  4.7273795425088094e-01  3.7874369797457308e-01  -1.8284977223295723e-01  3.8080118743243824e-01  1.3673286453447542e-01  -2.6197178757840223e-01  4.6948593868231753e-01  4.3493830375645937e-01  5.5580335293603768e-02  -1.1979258080742805e-01  7.8361210614927693e-02  4.2360656801808028e-01  -2.4157315225327800e-01  2.4960733941105903e-01  4.8987897790746859e-01  1.9732559123927124e-01  3.5549098781757471e-01  -1.0170341854510377e-01  3.3101094881984933e-01  1.7597675339562610e-01  9.0032494243838779e-01  3.1987679289893461e-01  -9.3641375813757657e-02  6.3515657692766925e-01  5.8980013860555007e-02  1.6230510895113578e-01  -1.7443090831494107e-01  6.7067985955154874e-01  -1.2280977469304295e-01  -9.7586769000272119e-02  -4.8012384246908471e-02  -2.2718815535860734e-01  -1.2269225873327959e-01  -9.5846714645404160e-02  -3.9940857290448045e-01  -1.8357341232058572e-01  7.2523160608744308e-01  -3.9535462229323343e-01  -1.3128695657195896e-01  -3.0863921834533009e-01  5.2250842159865118e-01  5.4633530099842953e-01  -2.3347001778634491e-01  -8.6699216315449712e-01  3.7780330029434830e-02  -1.9499221839367398e-01  -1.5596743367999180e-01  3.4530673395833614e-02  3.4696196895790715e-01  -6.1634550766443053e-01  -4.1616218958641676e-01  4.0702753749553439e-01  -5.3958056974032290e-02  -7.6023301140941635e-01  1.0514249687560778e-01  -4.4258131096333297e-01  -3.3828581256887924e-01  4.4017775373977086e-01  -9.9176193413391928e-02  -9.4214363096514864e-01  2.6016123481884362e-01  -8.3357381176549283e-01  -7.3074115360463751e-02  -4.5163308154745413e-01  -1.0285645376685377e+00  -6.7997835620725777e-01  3.5241998155743226e-01  1.1343817412380111e-01  -1.6665641916143958e+00  -1.3349515519527211e-01  -1.8766967639640875e-01  -3.8979690370136927e-01  -1.8666292009184042e+00  -8.4846827973117167e-01  1.3981224833641973e-01  8.8998779694048047e-01  -4.7275218789266005e-01  -3.5180747458024332e-02  -5.6761791494358571e-01  1.0499195390535648e-01  1.9000062428162873e-01  1.1936754128087634e-01  8.7489333978534700e-01  8.8389082960786769e-01  9.2241931146400813e-01  -1.0736003838447215e-02  -1.5709749684548657e-01  -1.4515695406518217e-01  9.7127686102070221e-01  8.8160310373571360e-01  8.6386394956328494e-01  1.0929589147072319e-01  -5.2647244904651758e-01  -3.8073279944747629e-01  2.0768134324041096e-01  -6.4032344512505646e-01  -4.2897149481354752e-01  -2.0217507551974900e-01  1.1086422729721506e+00  1.0940566254302717e+00  -6.5430649132965521e-02  9.0113618667516673e-02  -9.9729202542231610e-02  -2.9427971313265350e-01  -1.0956804392604724e+00  -3.0226201625267102e-01  -6.3020040148222034e-01  2.1394737426409263e-01  -3.0314995528888899e-01  -3.4596854247316994e-01  -3.1000824686675643e-01  2.0004630662551906e-01  2.0024767007849301e-01  -9.9859472060383675e-02  1.5418561757521849e+00  1.9753589893380727e-01  3.5966782732339796e-02  -6.8120522363411673e-01  8.0467766034955013e-01  8.0515382397671043e-01  8.4969440894775894e-01  -4.4662682237559237e-01  -4.4149318747688254e-01  -4.7465609377826018e-01  6.2259186402448397e-01  7.7426070297221328e-01  5.4544241390454973e-01  -6.5093188398711377e-01  -6.0956684730666455e-01  -2.1135059477627149e-01  -2.3215057457258151e-01  1.8038291797966560e-01  1.1621091421701581e+00  3.2817450547607252e-01  9.3911505343255375e-01  -1.2162408779216507e+00  -1.1386464826352021e+00  3.7167371312869052e-01  -1.3545995354646203e+00  -2.5923980609759573e-01  -4.4335220415264415e-01  -1.2369246341869250e-01  9.0816903201769039e-01  8.5587517870784324e-01  1.9849129891290807e-01  3.8052774385297072e-01  -1.8947494962821532e+00  1.9325207546598733e-01  1.8729554358062986e-01  2.0779729258281257e-01  -9.4183531913899481e-03  -5.7490061092345990e-01  6.6329095486229908e-02  7.6375414931579033e-01  2.7400126035562935e-02  -2.6967543583168035e-01  -6.7587462775044038e-01  -9.5152541638975285e-01  5.7124531504613474e-01  3.7523974681861427e-01  7.0587872140065988e-01  -2.3145938035640434e-01  1.1397332135613292e+00  2.2612197254655000e-01  -6.4962645320816947e-01  2.8110050950602661e-01  -1.0726116833519095e+00  3.2394364769571837e-01  -5.0258929733646640e-01  2.5558590971926692e-01  -2.8207756786658400e-01  -2.8917727981803920e-01  -7.4171601139798893e-01  5.4711688414274699e-02  8.9811953094193586e-01  8.8498943349354353e-01  8.8241533604304123e-01  1.0380156958023640e-01  -1.0565456884677950e-01  2.0057114310438420e-01  -3.9748368791723948e-01  7.7685749027056039e-01  -5.6305304140389895e-02  8.8376334577281657e-01  -3.5924430094019966e-01  -2.0122345361358585e-01  4.2398879879802687e-01  -2.1797047404967834e-01  7.8604509255784716e-01  3.8923414256657707e-01  2.8948192566420849e-01  -1.5283130755971885e-01  -4.0019268544501896e-01  4.5248590535721572e-01  -5.2069637979403852e-02  4.8935585539441565e-02  7.4839244962674589e-01  -4.9965058007960661e-01  2.9098415286988732e-01  7.8784512489052472e-01  -3.3841671430275187e-02  9.8895805351886668e-01  2.3691741864603375e-01  -3.4238487071666512e-01  -1.8829950953254443e-01  -2.8006286552007242e-01  3.7348166451975939e-01  5.4218118000706217e-01  -1.7873700460378925e-01  -7.9771811666376824e-01  -1.1922036240870555e-01  -1.3980613920151963e-01  -5.3302925635789788e-01  2.7041955477824703e-01  4.2496914299200683e-01  9.1532842572100748e-01  1.4981841302251286e-02  2.8148950320216953e-01  4.0569551394522946e-01  -7.9722332201810672e-02  2.9056439172614557e-01  -4.4688661153208568e-04  -3.6460997015142194e-01  4.5207994657774253e-01  -2.3692799461094810e-01  3.0451921799970377e-01  7.9805426879526950e-02  -1.7351418989398235e-01  -1.4521202463586388e-01  4.6307624920168577e-01  4.4303003186107387e-01  3.5073261803675010e-01  3.8186093237846741e-01  -5.4513702344066839e-01  -8.0681660009379730e-01  1.9708910415769235e-01  3.3591277938735892e-01  -1.0686222866508945e+00  -1.8196047305980237e-01  -9.1405182413024966e-01  2.1153733153461363e-01  3.0498125149930683e-01  -3.1798510083766235e-01  -6.8114451708297541e-01  -2.3389980099425001e-01  9.3074747322997220e-01  3.6479651715359995e-01  -6.4683297020104458e-01  -5.7501530430930403e-01  -3.3558819547759094e-01  3.4346487659669576e-03  -2.3157928936981892e-01  -2.0911101336804019e-01  -6.5914575372205275e-01  -1.3459512180930117e-01  -3.1939775974770840e-01  1.2366894504346755e-01  -5.9801279225391857e-01  -8.7298967094158542e-01  -1.3474397887146192e+00  -1.3710977986139572e+00  -1.3831656038216922e+00  -4.7359175914792950e-01  5.2754333619081062e-01  4.3572387288071618e-01  3.1662337245291489e-01  -1.3775375533773788e+00  -4.7436141562719558e-01  -4.7695205828179696e-02  -1.6009825747968179e-01  -1.6881702984398053e-01  4.5504183135398424e-01  4.1709995374412523e-01  4.6477790124223894e-01  -3.5942998297457796e-01  3.4901154640819254e-01  1.3094752777152327e-01  9.2300016543670135e-02  1.6070468675377345e-01  2.2837527677791131e-01  3.7605771375034130e-01  3.6435113510326256e-01  1.4944348290120965e-01  1.4450839468241944e-01  -1.9286261303357496e-01  5.4389890646593157e-02  4.2079077135158910e-01  2.0112574034829742e-01  -4.3345403267449061e-02  3.4600670985994336e-01  4.9771678508212780e-01  4.9484172055159314e-01  5.0846617761037238e-01  9.1871412492457738e-01  4.3592631335385507e-01  1.5379260299621140e+00  -3.2808350532899916e-01  -3.9306985358040736e-01  -2.1598105919212039e-02  -7.1945490988979277e-01  -2.0046523718078835e-01  -1.1351865591919597e+00  1.3878795601471625e+00  -4.4199612216591039e-01  1.3726579135550485e+00  -1.0535928037019293e+00  -7.1043746234975180e-01  -9.0808085513054981e-01  -1.1219178659624178e+00  1.8044270450656004e+00  -3.8861967877348486e-01  3.0627086709307505e-01  -4.4293456012583976e-01  1.0696493702286466e-01  -7.1585609517093562e-01  -1.0336156881397465e+00  -3.4246371694382449e-01  1.0292311430552716e+00  -6.5385448449773276e-01  -5.9162798168989172e-01  1.7130015163162495e+00  9.7733211737347647e-01  -6.6084666980931950e-01  -5.5535857392120791e-01  -6.3051129164818331e-01  -7.4122961816963162e-01  -6.7824374692560596e-01  -8.4154803581015081e-01  -8.2613274751157983e-01  -7.1577332544041172e-01  -9.6728775353712504e-01  -8.8171704833965381e-01  -1.0170495662070613e+00  -1.0571086222333812e+00  -1.0574450712012191e+00  -1.0990340391842646e+00  -1.0872649534989343e+00  -1.1191838947348369e+00  -1.1274478178056697e+00  -1.1048322636180841e+00  -1.1282251539725481e+00  -1.1230402399944517e+00  -1.1245274974304249e+00  -1.1548417205145238e+00  -1.1314750889154348e+00  -1.2145050936053969e+00  -1.1408014674778351e+00  -1.2081272820444422e+00  -1.3148557635847467e+00  -1.2319368014610810e+00  -1.4007293862636021e+00  -1.2564996228278882e+00  -1.3982335330201481e+00  -1.1352595806040642e+00  -1.2823773995670511e+00  -1.2465366710251466e+00  -1.0728267766195037e+00  -8.893390