<?xml version="1.0"?>
<VTKFile type="UnstructuredGrid"  version="0.1"  >
<UnstructuredGrid>
<Piece  NumberOfPoints="4269" NumberOfCells="8234">
<Points>
<DataArray  type="Float64"  NumberOfComponents="3"  format="ascii">0 1 0  0 0 0  7.5 0 0  7.5 1 0  1.197537668119028 0.5812868930080463 0  1.2 0.55 0  1.197537668119028 0.5187131069919538 0  1.190211303259031 0.4881966011250105 0  1.178201304837674 0.4592019000520907 0  1.161803398874989 0.4324429495415054 0  1.141421356237309 0.4085786437626905 0  1.117557050458495 0.3881966011250105 0  1.090798099947909 0.3717986951623264 0  1.06180339887499 0.3597886967409693 0  1.031286893008046 0.3524623318809725 0  1 0.35 0  0.9687131069919538 0.3524623318809725 0  0.9381966011250105 0.3597886967409694 0  0.9092019000520906 0.3717986951623264 0  0.8824429495415054 0.3881966011250105 0  0.8585786437626904 0.4085786437626905 0  0.8381966011250105 0.4324429495415054 0  0.8217986951623264 0.4592019000520907 0  0.8097886967409692 0.4881966011250107 0  0.8024623318809725 0.5187131069919539 0  0.8 0.55 0  0.8024623318809725 0.5812868930080463 0  0.8097886967409693 0.6118033988749896 0  0.8217986951623264 0.6407980999479095 0  0.8381966011250105 0.6675570504584947 0  0.8585786437626906 0.6914213562373096 0  0.8824429495415054 0.7118033988749896 0  0.9092019000520907 0.7282013048376736 0  0.9381966011250106 0.7402113032590307 0  0.9687131069919539 0.7475376681190276 0  1 0.75 0  1.031286893008046 0.7475376681190276 0  1.06180339887499 0.7402113032590307 0  1.090798099947909 0.7282013048376736 0  1.117557050458495 0.7118033988749896 0  1.141421356237309 0.6914213562373095 0  1.161803398874989 0.6675570504584947 0  1.178201304837674 0.6407980999479094 0  1.190211303259031 0.6118033988749896 0  3.75 0 0  3.75 1 0  1.875 0 0  1.875 1 0  0.9375 0 0  0.9375 1 0  1.40625 1 0  5.625 1 0  5.625 0 0  2.8125 1 0  2.8125 0 0  4.6875 0 0  4.6875 1 0  6.5625 0 0  6.5625 1 0  5.15625 0.5 0  4.21875 0.5 0  2.34375 0.5 0  3.28125 0.5 0  6.09375 0.5 0  7.5 0.5 0  6.897916666666666 0.5 0  1.842708333333333 0.5 0  0 0.5 0  0.46875 0 0  5.625 0.5302734375 0  7.03125 0 0  6.09375 1 0  2.8125 0.4697265625 0  3.28125 0 0  2.34375 1 0  2.34375 0 0  3.75 0.4697265625 0  4.21875 0 0  4.21875 1 0  4.6875 0.5302734375 0  3.28125 1 0  5.15625 0 0  6.09375 0 0  5.15625 1 0  0.46875 1 0  1.40625 0 0  7.03125 1 0  0.3954638734376499 0.5975780249976004 0  6.495833333333334 0.4072265624999998 0  5.859375 0.25 0  4.905729166666666 0.26513671875 0  4.453125 0.25 0  3.531770833333333 0.73486328125 0  3.968229166666667 0.73486328125 0  2.594270833333333 0.73486328125 0  3.030729166666667 0.73486328125 0  6.328125 0.75 0  7.198958333333334 0.3125000000000002 0  7.198958333333334 0.6874999999999998 0  5.390625 0.25 0  0 0.25 0  2.109375 0.75 0  2.109375 0.25 0  1.51921323205749 0.3418883887525936 0  1.522346610178253 0.6811769608297746 0  5.375456746419271 0.75 0  4.921875 0.76513671875 0  4.437956746419271 0.75 0  3.984375 0.23486328125 0  3.500456746419271 0.25 0  2.578125 0.23486328125 0  3.046875 0.23486328125 0  5.874543253580729 0.75 0  6.642123189445656 0.6909095493086836 0  6.746354166666666 0.2391688368055553 0  0.3197109619185111 0.2850049285972083 0  6.328125 0 0  0.6313375889370429 0.2351325552547357 0  0 0.75 0  6.252283381534729 0.2693808819694041 0  0.234375 1 0  6.948437500000001 0.7543055555555555 0  0.5934018769555939 0.7694151657947577 0  1.858854166666667 0.75 0  1.858854166666667 0.25 0  1.640625 0 0  2.093229166666667 0.5 0  7.5 0.25 0  3.282227579752604 0.75 0  7.5 0.75 0  1.171875 0 0  1.303539853147731 0.2235426933121065 0  5.148177083333333 0.2575683593749998 0  2.351822916666667 0.742431640625 0  1.640625 1 0  4.202380413457425 0.7645435094236485 0  3.047822985053062 0.4701848030090332 0  2.577177014946938 0.4701848030090332 0  4.672792740482199 0.76513671875 0  4.922822985053062 0.5298151969909668 0  5.390593497949761 0.5156244924311331 0  5.610292740482199 0.76513671875 0  3.516602579752604 0.5 0  4.45496853898097 0.4865915990446593 0  5.85753146101903 0.4865915990446593 0  3.749511210123698 0.23486328125 0  3.983397420247396 0.4999999999999999 0  2.343497975411212 0.2346270081980111 0  4.219002024588788 0.2346270081980111 0  0.703125 0 0  2.8125 0.2343755075688669 0  3.046875 0 0  2.578125 0 0  3.515625 0 0  3.984375 0 0  4.453125 1 0  5.390625 1 0  2.109375 0 0  2.109375 1 0  5.625 0.2921402030705575 0  5.390625 0 0  7.265625 0 0  6.796875 0 0  6.328125 1 0  3.046875 1 0  2.578125 1 0  3.984375 1 0  3.515625 1 0  4.453125 0 0  4.921875 0 0  5.859375 0 0  0.703125 1 0  1.171875 1 0  7.265625 1 0  4.921875 1 0  5.859375 1 0  0.234375 0 0  6.796875 1 0  6.980310975276531 0.2285890127127066 0  5.149170481934885 0.772689292163473 0  3.274170481934884 0.2273107078365268 0  6.101334126790364 0.7722468376159667 0  4.678005340872584 0.3000799877067239 0  2.8125 0.6921051326382495 0  3.75 0.6921051326382495 0  0.3515624999999999 0.8134571721668546 0  0.4990405774417521 0.4070099317153735 0  0.1789273931360182 0.625 0  6.31239060814315 0.5298877111157968 0  6.456979773992304 0.1917956348713352 0  6.699870808919271 0.4406293402777773 0  1.337539480965883 0.7944303676599538 0  6.058675797563041 0.2019812164653516 0  0.8203125 0.1643029084422534 0  0.1480856513011711 0.375 0  1.090769294689562 0.1719186776982972 0  7.291088163206459 0.5 0  7.094502414936563 0.5197902199074071 0  0.6046212059042245 0.5730066483871106 0  1.707231580809486 0.6342709161352207 0  1.685961352504593 0.8193269193390785 0  1.374721602852827 0.4600373025865813 0  6.486415510043844 0.5916440776477192 0  1.5234375 0.1508863828685116 0  1.707925830421689 0.3657739208189008 0  0.1674513225045584 0.8278776664019765 0  7.138268756771176 0.1438183366439137 0  7.1484375 0.8616388888888887 0  7.328562530764119 0.819498462930605 0  4.101073710123698 0.3678637200736647 0  1.693878467219965 0.1911955120941053 0  1.577566745468488 0.5110082404081502 0  6.6796875 0.8653871806883484 0  6.498039504430512 0.825568433346395 0  0.7562556668576472 0.8333197949571929 0  4.101045914668806 0.6255195807449272 0  5.030745188395182 0.382829047309028 0  2.476364945868651 0.6095868094762166 0  2.729359843907322 0.8460525663191247 0  2.9296875 0.8740763101564099 0  3.163518307559356 0.6254622797994247 0  3.666859843907322 0.8460525663191247 0  3.8671875 0.8740763101564099 0  4.8046875 0.12592368984359 0  3.14936031382311 0.8606990583876851 0  2.4609375 0.8747622921397776 0  5.023140791101972 0.1392266772452574 0  0 0.125 0  0.1759922923594607 0.1727589856739889 0  4.5703125 0.125 0  7.327755777818006 0.1766156770456191 0  5.5078125 0.125 0  5.719712725029036 0.1460701015352787 0  4.327848962028002 0.3674169956512513 0  5.982681121544351 0.3692637923021713 0  3.398926289876302 0.6245417594909667 0  5.281756792511996 0.3827993367299961 0  2.226822645963271 0.6252438868405666 0  2.234390064317166 0.8676616584526566 0  5.2734375 0.125 0  1.96796875 0.382568359375 0  2.234651037971999 0.3674169956512511 0  1.984114583333333 0.132568359375 0  1.9921875 0.875 0  1.984114583333333 0.632568359375 0  5.748733794462357 0.8678269127183313 0  3.3984375 0.875456329184688 0  1.512925924995415 0.8582958012121853 0  1.359299372802969 0.6275861864990343 0  4.810521420483513 0.4041767793635395 0  0.2996213306116602 0.455339710363317 0  5.999933717403708 0.6388425470751088 0  5.250033449003657 0.6388713364551682 0  3.631676045992918 0.3525406652400928 0  4.3359375 0.8816499670325881 0  4.343577437052484 0.6116511299909198 0  3.375033449003656 0.3611286635448316 0  5.763152151652243 0.6249404690537395 0  4.549347848347757 0.6249404690537396 0  5.5004588702411 0.6403667365776566 0  5.976118394847484 0.8816230218343086 0  5.054722486865804 0.6338007028640954 0  3.164542163493752 0.3520519332736524 0  2.445407482032355 0.3672168403687257 0  4.8046875 0.882568359375 0  4.1015625 0.117431640625 0  2.4609375 0.117431640625 0  2.695556894938151 0.3520510350344335 0  2.929443105061849 0.3520510350344335 0  3.881979231817319 0.3670559016511187 0  3.8671875 0.117431640625 0  4.805389247695744 0.6470047893641744 0  3.399370721942191 0.1184066543556767 0  5.274370721942192 0.881593345644323 0  3.618253274934649 0.1316869186284249 0  2.6953125 0.1171877537844335 0  2.9296875 0.1171877537844335 0  2.21873344389451 0.125 0  4.3359375 0.1171877625080073 0  0.6659898565672709 0.3986593551313873 0  7.363359022954956 0.3481046411219251 0  7.363359022954956 0.6518953588780749 0  5.487719392831826 0.3828237631077121 0  2.695054578344725 0.5809158475691247 0  2.944553877887707 0.5964065668438148 0  0.3515625 0.1201898858097106 0  5.5078125 1 0  4.5703125 1 0  5.031746201297604 0.882568359375 0  3.1640625 0 0  6.2109375 1 0  6.186845385763124 0.6336356480571081 0  4.1015625 1 0  6.810399074069772 0.6495574751396682 0  0.4740615253480797 0.2509287743856873 0  7.052064303830151 0.3684417917792242 0  6.195177069665382 0.1216488332168849 0  5.72300154718324 0.4112068202852788 0  3.879157465495092 0.6111892850691246 0  3.645760045247695 0.5809158475691247 0  6.868257400485771 0.3427840810237202 0  6.612030892260864 0.1521752713064389 0  6.615666885941117 0.3151079644097221 0  4.04296875 0.8633718902669071 0  1.183031453639096 0.8486801864185936 0  6.9140625 0 0  6.859079526500421 0.1398292786950638 0  6.808232443325651 0.7957411753922057 0  6.9140625 1 0  4.544955211100143 0.3675874343205077 0  1.0546875 1 0  6.122060236165557 0.3316791557072867 0  0.5859375 0 0  5.9765625 0 0  5.44921875 0.870984788733638 0  4.51171875 0.870984788733638 0  0.7608354256382215 0.2931261274224557 0  6.386875332239937 0.3156583003094978 0  6.985654756850997 0.6147408423643147 0  6.223797257919172 0.8535621912121121 0  5.936822413218736 0.1338376546337823 0  6.23933008800134 0.4095573603773768 0  0.5414022462152697 0.1305482677949959 0  6.331360438104348 0.1370086318183389 0  0.956404929269873 0.1374266563647954 0  1.2890625 1 0  0.691305981127761 0.6764829884281737 0  3.531251607241209 0.8678916320952239 0  2.59787442813022 
[...]
<PointData  Scalars="f_71633"> 
<DataArray  type="Float64"  Name="f_71633"  format="ascii">6.9688290138469045e-01  6.1145042380565950e-01  0.0000000000000000e+00  0.0000000000000000e+00  -9.1776301775601277e-01  -8.7012291881783566e-01  -9.1024786300467420e-01  -8.8446045427391307e-01  -7.9813978176643097e-01  -7.3925375608382771e-01  -6.8976324319360283e-01  -7.0252398370730973e-01  -7.4595614796636311e-01  -8.2244995976817858e-01  -9.7154986401082555e-01  -1.1927766957850121e+00  -1.3832983545168203e+00  -1.4509929944257978e+00  -1.2630748532503104e+00  -8.9551738575563700e-01  -3.4393567142721698e-01  2.6955330168838765e-01  8.4518441259006682e-01  1.3510586045579740e+00  1.6692781206150338e+00  1.7685966078465496e+00  1.6359136753752597e+00  1.3096496747638435e+00  8.2928228151307160e-01  3.1140871619916233e-01  -2.2599344837002977e-01  -7.1081277514855001e-01  -1.0689840278828677e+00  -1.2944186620274116e+00  -1.3815661106444324e+00  -1.3274150564947120e+00  -1.2298502022069542e+00  -1.1466761341170892e+00  -1.1007377549542392e+00  -1.0817078736280055e+00  -1.0738022819046167e+00  -1.0756835640334896e+00  -1.0659067391843535e+00  -1.0131825116896491e+00  4.3374720159785177e-02  -4.0519446755403365e-01  -3.5929126245346199e-01  2.9508816595017395e-01  1.0653164464612623e-01  -1.1937163884360930e-01  -4.2689454350716544e-01  2.7000343604339401e-02  3.9259116563524613e-02  -4.6893860979633870e-02  -6.3852774276431212e-02  6.4883394151221851e-02  -1.2518041802759389e-01  1.3897948621892146e-02  2.7967553456485932e-02  6.6307583209399654e-02  -6.8404412463876907e-02  -8.4156570103671835e-01  -2.9781332465910038e-01  2.7333160245122664e-02  0.0000000000000000e+00  8.6170480721882783e-03  -1.5122228641375046e-01  6.8786005049896726e-01  6.1001980002367107e-01  3.9925146601301746e-02  2.7508329473649989e-03  2.9862201793754081e-02  -6.6878061346310358e-01  -4.4353465425604954e-01  -3.2176900324984770e-01  3.5558745264696118e-01  -7.4684075066457589e-01  1.4592496222784571e-01  4.0632728324481893e-01  5.2106517469183225e-02  3.9414290791008344e-01  6.6707974543407211e-02  2.6472497175179268e-02  1.3224459470483169e-02  6.3447359084734301e-01  -3.8215445175188234e-01  -1.6354646174254812e-02  7.9013378516024491e-01  1.6832299832033892e-02  3.3941061702541936e-02  1.2052941119746495e-01  3.7798079239397223e-02  -8.4520958157541204e-01  -3.9743231995756012e-01  -1.7050362334389613e+00  4.7363439049777534e-01  2.2306384435205519e-02  5.7547818743264294e-03  5.0952864314565988e-03  4.8628400703168997e-02  6.2515318151928045e-01  9.7328249666464667e-02  -6.0199706037040479e-01  -1.4715675563053152e+00  -4.1928807970831938e-01  3.3565915486178134e-02  1.0178783816709145e-02  -2.0188639349394336e-01  1.6241929767765284e-01  -4.3272957283575791e-01  1.1549702556229313e-01  -4.1118625734146480e-01  3.3456332889103602e-02  1.4792682076349017e-02  1.0616027854660830e-02  6.5788427516502279e-01  2.0231603283406407e-02  6.2963592047548178e-01  7.0230702402009937e-01  2.2288037798922064e-02  6.8541951015948288e-01  4.8905207588314939e-03  7.1664325924453620e-01  2.6030128114017392e-01  -3.3096131962653391e-01  -4.6477525879671494e-01  -7.7095863337214254e-01  0.0000000000000000e+00  2.4227813006975149e-01  0.0000000000000000e+00  -2.5670689900355115e-01  -6.4198981397554944e-01  6.7000779023012186e-02  -5.3485023067124771e-01  1.0699714712685829e-01  1.2616568955457155e-01  -7.7002788184867810e-01  -7.7047129717319518e-01  -1.0506219987447399e-01  1.1415736209748507e-01  4.6708691089884888e-02  3.8906553379984915e-02  -6.2670062954060080e-01  -3.0390720726226955e-01  3.3784053077301174e-02  -1.0372855742010881e-01  -2.2461074202579265e-01  3.2864308371206802e-01  1.3931249365730783e-01  5.1700229434816425e-01  -1.4184992210449610e-01  -2.8955431597382419e-01  2.5118896191376738e-01  -3.9741290725003287e-01  1.2472664654300243e-01  1.5401885387471417e-01  2.4348914398146147e-02  -5.1380435960851970e-02  8.6509445431270218e-02  4.0115593954017766e-02  4.9976493406129384e-02  9.0311376766898412e-03  1.4683828281976091e-03  2.4817016123418901e-02  5.1922593940419026e-01  -7.6574996714547072e-01  3.1952176282046080e-01  -2.4607997916521526e-01  7.8753439781486398e-02  8.1068397997147698e-02  2.8810601361170935e-02  4.7910422273943321e-01  -6.7598230946256477e-01  -1.0145167199273821e-02  -4.9972158942069453e-02  3.1112315284224708e-02  6.1378077966555844e-01  3.8645814376690027e-02  6.7648442984362478e-03  2.7542480763669382e-02  -3.6177943510014099e-01  2.8644636116769689e-02  7.4905503997682574e-02  -9.2789886848551562e-01  -1.4305980845814505e+00  6.8807430962285632e-01  8.2671510789926173e-01  7.1459304662582646e-01  2.1813437986704053e-02  1.2003430002062094e-02  1.1738394188902898e-02  -9.1554269193420490e-01  2.7139835835349724e-02  3.0469189500955729e-01  6.6223990513595543e-01  -2.9098864532692176e-01  -1.0328848970235819e-03  6.5258764234291640e-03  1.0852535622592239e+00  1.7879293257670770e-01  2.3569828985886460e-01  -2.1798032018490336e+00  1.7425449240205133e-02  -5.0509667004716419e-01  -5.1809101740609576e-01  6.9942666795840536e-01  -2.0557646016910289e-04  -7.9974806434826608e-03  -2.3781186288116323e-03  1.0510590509002010e-01  -4.5546143165869318e-01  -1.7434474107244928e+00  1.3891360980429557e-02  1.8787333247284228e-02  4.1689804568767813e-01  -1.1682329659939895e-01  3.3973142743150463e-02  -1.3311334396936925e+00  -7.9688173393580308e-01  3.8654312786071066e-01  5.7155932195128642e-03  -9.2970779894582278e-01  -3.1031320551851971e-01  7.9707889401248067e-02  5.0352903031826424e-01  -6.7171158123223607e-01  8.3832587284557947e-02  6.1236572362362895e-01  6.1604353580977556e-01  5.2911604998357967e-02  1.6507737443726127e-03  4.5417318881656128e-02  3.7205551807655578e-02  -1.6001383371678325e-02  3.0956167174061491e-02  -3.5222648535747503e-01  5.9482020763203441e-02  -3.4131978686656439e-01  -1.1828594099601357e-01  5.6840043311205055e-02  -5.5952144276916405e-01  -6.6937036052497678e-01  -2.6069442474465343e-01  2.6823692611894234e-01  -6.3627844407096274e-03  3.3707412192009900e-02  5.4154248965761959e-02  -1.8329021217495012e-01  -1.3170384061740696e+00  9.3356825877103491e-02  7.2259687576636700e-01  2.9296426063484315e-02  4.1932386113222815e-02  -3.6622813685503475e-01  1.2462861648047729e-01  -3.9234628388019693e-01  -3.2631290726979983e-01  3.3282840035343139e-02  -2.3820864742271303e-01  3.7170668082778767e-02  2.9633787189850797e-02  1.6829763593511588e-02  -4.4687779811789691e-01  -1.8062163784175117e-01  -7.0317253129491164e-02  2.1472031854833487e-01  3.7624155578359952e-01  -3.0478800994993516e-01  -5.7212420394988039e-01  -1.2880035444759730e-01  2.9849912784815552e-01  -5.0607725580533433e-02  -6.2386203683156638e-01  3.2347692254899363e-02  -1.9276772454041610e-01  1.1294049318363809e-01  -2.2210857571620393e-01  1.7005361081077580e-01  8.9239039256401684e-02  9.5585393050541112e-01  6.4924700829768981e-03  -9.3096807114377805e-04  4.2980293237274148e-02  -1.2767122336466346e+00  -3.9783864493463938e-01  6.1476650112403441e-01  4.2141223955772203e-02  -8.0461804565402847e-02  1.2672505269249691e-02  -3.4626828825934280e-01  2.5824023429693230e-02  2.4350787331673271e-02  4.1761690713385524e-01  1.0059799185386723e-02  6.6281897884843433e-01  1.6836547242742601e-03  2.5695224445205004e-02  3.5570255276027404e-02  -9.5936560732519394e-01  -1.2003206019489210e+00  7.3470572681218552e-03  1.1052735145538232e-02  9.5008210735086657e-03  3.0647743510220077e-01  -8.5347264492024555e-01  1.9093380766603600e-02  1.0449044448915895e-02  5.5047274521776877e-03  -1.9645426833694711e-02  -4.2509290411364690e-02  -4.9971104337783068e-01  2.5014495101899559e-02  5.9265395745313154e-01  3.4629953167402666e-02  3.4579087473497312e-02  -4.3162445269589532e-02  4.8475396084576894e-01  1.7875876329043468e-02  3.7601081597806590e-03  2.4704406765654996e-02  3.2895910130279447e-02  2.4420958907078145e-02  6.0830001998643179e-01  1.9676022119643026e-02  1.6924388068267002e-02  -6.3277356610302760e-01  9.9449995086274545e-01  -4.7348728611721541e-01  -9.6803735731325136e-01  -4.1590283632844061e-01  -3.9995428042672365e-01  -3.4767691210248292e-01  7.4421974610188057e-01  6.4812258989077876e-01  1.6031363816447011e-01  2.5802557643347573e-01  1.5045464528231554e-02  -8.9527585966265588e-02  -3.3594275119786049e-01  -4.4843243582646129e-03  -3.7614504258514148e-03  5.8310885515257405e-01  -5.9006151221993575e-01  7.1237026572422923e-01  -5.5858017867317045e-01  7.0185424005674757e-01  6.8037824725942997e-02  -4.3402037545455302e-01  1.5903808964334798e-01  -1.0933216693420731e+00  -3.3151958287660271e-01  -3.6827020512962999e-01  -3.5002849935798747e-01  -7.0597772760607591e-01  -1.3550409614584485e-01  0.0000000000000000e+00  0.0000000000000000e+00  6.9807633662537683e-01  6.5653145041068961e-01  7.0255181002270628e-01  0.0000000000000000e+00  0.0000000000000000e+00  2.2594067215620999e-02  4.0881995107348207e-01  -8.6705023754990659e-03  -1.8174677912396959e+00  -1.5334834085264260e+00  -2.6147960503010877e-02  6.1158497627621755e-01  -4.6829103386142212e-01  5.1609413230636447e-01  8.8209077134139124e-03  2.9204953471821789e-02  -1.6540242189581958e-01  -1.8721096333985796e-01  5.7198792707143176e-02  3.9311978709089083e-02  2.6497737145324007e-01  -7.6276661438319204e-01  5.0365652385050370e-02  -1.1976256409595869e+00  -1.4035573981344385e-01  8.0153115753121271e-02  6.9441634177200295e-01  5.5801978396011265e-01  3.6784752718616441e-02  4.4987446513046363e-02  3.0557642920504554e-02  3.8789198973557849e-02  2.9389934679791997e-02  -1.7709464875433814e-01  3.3637343221999391e-02  -9.6925855797192137e-02  1.0860303296358721e-02  -1.6681498884567353e-01  3.3780033324588249e-01  -1.2927832379500955e-02  4.0120375600827024e-01  -8.0356068908398900e-02  -8.9976160175112729e-02  -4.7998381184878247e-01  -3.6169422721030281e-01  -8.4663139079315131e-01  -9.8645335000977608e-02  -8.2263624430500126e-01  -4.6039410004448883e-01  2.2851325442392310e-03  3.4237250672323957e-02  -2.5352328734365071e-01  -7.3460733106548359e-01  -8.3088570965468220e-02  -9.8200548562659695e-02  3.5563962683324575e-02  3.1606121481921608e-02  -1.4333162342512359e-01  3.2621267132345227e-02  -9.6203905675526766e-02  -6.4742153815955694e-01  3.7366796058086529e-02  -2.8182765942871391e-01  3.4041622043927730e-02  5.1918525546670043e-02  1.3918033185474954e-01  3.5708998076068317e-02  -1.0119756770716694e-01  1.7706202919575778e-01  -1.9150755750490001e-01  3.7362548210808233e-01  2.4336764177837311e-01  6.5636414708989413e-02  7.3024816384145499e-02  6.6899521640174639e-02  -3.3186699951662824e-01  1.8839354586913003e-02  2.7674355814160062e-01  1.2477181823729269e-01  2.6084466278064936e-02  6.1250595957618326e-01  8.6632925351507628e-02  2.1127976779118529e-01  -7.0254216048787232e-02  -2.0395180996063667e-01  1.1714391817350008e-01  -5.4437845055900835e-01  1.6604634430497112e-01  3.2847060872999950e-01  3.8943140140776122e-01  2.0506422658338247e-01  -6.3884255127130057e-02  -2.7151252861849499e-02  3.4129892320760614e-02  1.4661621288547280e-01  3.5023016296915795e-02  2.1563973186474777e-01  -2.1057792740901016e-01  6.0089376673646687e-02  -1.0081953240626186e-01  3.9853090599412437e-02  5.2972094793196103e-02  4.7846311884388038e-02  6.1387344737028782e-02  7.6685291646339332e-02  -5.9599620486251847e-01  4.8606583674291198e-01  7.5730856252195625e-02  8.3777744927056776e-03  -5.8493387785158657e-01  3.8072781942066936e-01  -5.5241853799607032e-01  -1.3365704599052590e-02  -1.8213954835868507e-02  -3.5823123577857757e-01  -2.6716577021761525e-02  3.7381199752603311e-01  7.3032358083210402e-03  6.6511635429118710e-01  8.1180430220101039e-03  3.2945312453428958e-02  -4.4841293332279264e-01  -1.9138516211012893e-01  2.8647755438132076e-02  1.9917169730763386e-02  2.3642747628151489e-01  -2.6226598649928762e-01  1.1751207210842409e-02  1.9054835605287760e-02  1.6063265257412120e-02  5.4550662080458364e-03  1.8739379995529623e-03  -3.5208179226400699e-01  -2.5826592030143226e-04  -6.6856291682016267e-01  1.2899760779667216e-02  -4.7568304121975012e-02  4.2221583948817989e-02  -7.3603124950533351e-03  -3.0224909604465366e-01  -7.2258734385760326e-01  -5.8525126831524343e-01  -7.8505735629815299e-01  -1.6410685182694745e-01  2.8783188831254851e-02  2.8117524533453300e-02  3.1246023631676754e-02  -1.3785844537574551e-02  1.2793525193980190e-02  -4.5160927670756684e-01  -4.2327297338530268e-01  3.0961553824580164e-02  -3.1983388662249403e-02  1.9060609953640416e-02  9.1864531823837220e-02  -3.4048840681242903e-01  4.1990298131566704e-03  1.9858545705519193e-02  -8.1576143795237921e-01  2.4569486744587782e-02  -1.2570178304185167e+00  -1.0187661013973364e+00  -1.0888554985839922e-01  -8.7129001200743372e-01  -1.4179294432475082e+00  -1.6579406824476566e+00  -3.2272847172125102e-01  -1.1164845717326974e+00  -2.4870434446970588e-01  1.1670230479004755e-01  -2.2816189496235616e-02  2.4152763929794801e-02  -1.4354487685859003e+00  6.8409170111086282e-01  5.4822337329093829e-01  -5.3454484842253958e-01  2.1517318552719267e-02  1.7459393769654760e-02  1.4540452195914563e-02  7.9088216026010516e-02  6.9841004843570675e-01  7.0563454390274771e-01  7.3793080768936958e-01  3.2099771598951707e-02  3.3542689441078667e-02  -1.0301637373131046e-01  7.9656706531473853e-01  7.2246331234131711e-01  7.5177226232484506e-01  -4.9238900883146230e-01  -5.3165079456874931e-01  -2.3648977437232557e-01  -1.0611312843155036e+00  1.7838107503608234e-02  1.6521652458667624e-01  4.0818453951738616e-02  9.2279370307345321e-01  8.7673573139905325e-01  -5.0380696815867043e-02  -6.9965385144399894e-01  -1.7957924191823176e-02  -3.4667891199829043e-01  -2.1436269133596366e+00  -9.6761409612350715e-04  -1.2830719606473113e-04  -3.7712756950782012e-01  1.3917207250472293e-02  1.3191351658783568e-02  6.6450815738601692e-03  2.8394866999399766e-02  -4.6838568435394418e-01  4.6196165851837799e-02  1.3443500632535619e+00  2.6552957626773274e-02  3.0067891583567329e-02  -4.1983298497737208e-03  6.3459250231680486e-01  6.3517589225114635e-01  6.7896366330961799e-01  6.5878965456070649e-03  1.0900921306140912e-02  4.6398766953254247e-02  -4.8349354583568055e-01  6.2184157087561698e-01  -4.7436691875194148e-01  -5.0620119014901488e-01  1.9616533782313785e-02  -3.7841984636772272e-04  5.9584956776280520e-03  1.4688903679771497e-02  9.0788774061337629e-01  -5.8215412443883319e-01  7.3257918658601096e-01  -1.4097230235873717e+00  -1.2002600643073720e+00  8.5441113437538588e-03  2.8857937163208596e-02  -1.0994013648941938e+00  1.4355386929470262e-01  4.7834482647268188e-02  6.5638983659127270e-01  6.8014291103959224e-01  2.4685003067626374e-01  -1.2111035059891438e-01  -4.1788107923255552e-01  -1.8066332080503610e-03  -2.1290595193719578e-03  -9.2185261118240391e-03  6.4176464209657839e-03  2.2761356970523931e-03  -6.5806640565663699e-01  6.1136233494970815e-01  -1.6627751049276378e-02  3.4720551613963113e-01  5.9849429773085480e-02  -7.8366962663759399e-01  -8.8294331106561197e-01  -3.8711217908826528e-01  6.1158896245138439e-01  -1.8905328004455862e-01  9.7648873707658890e-01  2.0012961691387613e-02  2.8092727036479029e-02  1.4068544064667501e-02  2.3424880863452759e-02  3.4888561622382221e-02  2.6329524527845932e-01  -1.0563347174556379e-02  -8.3159059811101915e-03  2.3495153559930163e-03  -7.2421002293798324e-03  3.5620563825922132e-03  5.8520459107961431e-01  6.9183379100693221e-01  7.0043036923902879e-01  2.8692778533479762e-02  2.9989373346289794e-01  -3.5994310731298795e-01  4.2001658107743270e-02  6.1256251484486390e-01  2.0652915486063690e-02  6.9679814043714428e-01  6.4155859973053396e-03  1.4389054316955646e-02  2.4291242715424569e-03  6.8422902543505979e-03  6.1817123819425757e-01  4.2087553260409007e-02  2.1798575988748833e-02  -3.6249968045164954e-01  2.6212478904880012e-02  1.5273046747051532e-02  8.9085779630855403e-04  -2.2794267081821624e-03  6.2838316151358931e-01  5.3253054833925492e-02  5.7922343163830936e-03  3.7422792267112670e-01  1.4327644887358007e-02  6.6139718820660354e-01  9.5369657526371224e-03  -3.2425338737911447e-01  1.5674745530697423e-01  -9.4843913486097964e-01  -1.0799827017068679e+00  5.1534763568262842e-01  1.5830885137348590e-02  -1.2038261486371771e-02  1.0735869572628229e-01  -2.9991814166575412e-02  -5.5843147375732316e-02  -6.7332000418877935e-03  4.4460113456633449e-01  7.8480512419923165e-01  2.9551746827897584e-02  -1.5136960125980796e+00  -1.0974069276760865e+00  -1.0457164488753543e+00  -1.3219541471232428e+00  2.2148412428823084e-02  3.4114677915533000e-02  7.2637126370197320e-04  1.0370073586689553e-02  7.2903470915106914e-03  2.3538628079237578e-03  1.8937778893511392e-01  5.2115071221560350e-01  -3.2161526977663885e-01  -7.0190510862710054e-02  3.3890400333358002e-02  3.1406749327600882e-02  2.7928079496324691e-02  -2.5759241454317927e-03  5.5959316783577698e-02  7.4602922776149688e-02  -9.3866843934843791e-02  3.4304708452577792e-01  -2.1678221075942783e-01  -9.4101751427069047e-01  -1.6861815667107565e+00  4.9821724983030446e-01  4.4351172407776229e-01  1.0247695116489779e-01  7.5192308714095235e-01  -5.3874747615560159e-01  5.2724305642035924e-02  4.3964623638824751e-02  -2.2689940980968847e-02  -5.1396656383693162e-01  -8.5680654135181877e-01  6.6952798231039251e-02  6.7609272162478265e-02  8.5723858370292283e-02  6.4444281584798938e-02  -2.6979062781611834e-01  1.0684325493028334e-01  1.6999177691192016e-01  -3.5127727759854616e-01  -8.2998490242626988e-01  -3.5280000481833917e-01  -3.7268169848947819e-01  -3.1107432851311262e-01  -2.8005216060120575e-01  -5.7449346317394066e-03  -9.1609584260075949e-01  1.7487630684858982e-01  3.0044573937055234e-02  3.1647573918547424e-02  2.9306398858766625e-02  -5.8098843912687548e-01  -7.1976747774393635e-01  6.5660659174342551e-02  2.5105971303231490e-02  -5.6293634736005405e-01  -6.6215936505934894e-02  -3.1665983629377409e-01  -6.0812741237487797e-02  -6.8513999017616734e-01  -3.8363526018114580e-01  5.2269831619902590e-02  4.9259441462687716e-02  1.5832518538342941e-01  5.9247267309274571e-02  1.9363317483886358e-01  6.2774491206830624e-02  5.7086307591096223e-02  4.3715382016900789e-01  1.9758593743521746e-01  -6.3223839752840238e-02  3.1881226940964386e-01  3.4514017965329491e-02  6.0236143905306583e-01  -2.7896714466044215e-01  1.3023961073470740e+00  -9.5663547491068424e-01  -1.0628446946477330e+00  -7.1390148613168322e-02  -1.1522527912843286e+00  -5.8003032230579088e-01  -6.4203911452267748e-01  1.1249686508824126e+00  -9.1682641157148181e-01  1.1920421841321314e+00  -7.2773592132005449e-01  -6.7633261199799988e-01  -1.0527708995692076e+00  -7.4126640720810155e-01  1.5720987410336813e+00  -1.0951132523534848e+00  3.1700474271345681e-02  -1.0664582735955923e+00  -9.6804166040755490e-03  -9.6981655638330244e-01  -8.4016640950332966e-01  -6.2748110188941020e-01  7.7231770531976118e-01  -1.0132272679516405e+00  -1.0927907529366421e+00  1.5040080878236417e+00  8.0155536427377017e-01  -8.8006105197060847e-01  -9.6765704464111690e-01  -9.1704977517637987e-01  -8.8267465599748729e-01  -8.9238248469238080e-01  -9.0511384410736617e-01  -9.2310916638768881e-01  -8.8452021362248523e-01  -8.3973210017196243e-01  -9.0669128993615011e-01  -7.9292928145009878e-01  -7.6578121119097675e-01  -7.6325998797087202e-01  -7.1216587906449269e-01  -7.4436121824391499e-01  -6.8826588782451048e-01  -6.8417610474820967e-01  -7.3240578534880352e-01  -7.2257684185745641e-01  -6.9583904925989548e-01  -7.2815158301248806e-01  -7.7749224452013466e-01  -7.4607792188527700e-01  -8.8786967817573459e-01  -7.7419384783010470e-01  -9.1103405535157023e-01  -1.0758121218620937e+00  -9.8132575087275331e-01  -1.2793826132657897e+00  -1.0543329505494037e+00  -1.3920352791918695e+00  -1.0970403940555313e+00  -1.1295591415867412e+00  -1.3333134516105520e+00  -1.0721634621344940e+00  -1.0363688772871547e+00  -5.5174637917238700e-01  -1.0