<?xml version="1.0"?>
<VTKFile type="UnstructuredGrid"  version="0.1"  >
<UnstructuredGrid>
<Piece  NumberOfPoints="4269" NumberOfCells="8234">
<Points>
<DataArray  type="Float64"  NumberOfComponents="3"  format="ascii">0 1 0  0 0 0  7.5 0 0  7.5 1 0  1.197537668119028 0.5812868930080463 0  1.2 0.55 0  1.197537668119028 0.5187131069919538 0  1.190211303259031 0.4881966011250105 0  1.178201304837674 0.4592019000520907 0  1.161803398874989 0.4324429495415054 0  1.141421356237309 0.4085786437626905 0  1.117557050458495 0.3881966011250105 0  1.090798099947909 0.3717986951623264 0  1.06180339887499 0.3597886967409693 0  1.031286893008046 0.3524623318809725 0  1 0.35 0  0.9687131069919538 0.3524623318809725 0  0.9381966011250105 0.3597886967409694 0  0.9092019000520906 0.3717986951623264 0  0.8824429495415054 0.3881966011250105 0  0.8585786437626904 0.4085786437626905 0  0.8381966011250105 0.4324429495415054 0  0.8217986951623264 0.4592019000520907 0  0.8097886967409692 0.4881966011250107 0  0.8024623318809725 0.5187131069919539 0  0.8 0.55 0  0.8024623318809725 0.5812868930080463 0  0.8097886967409693 0.6118033988749896 0  0.8217986951623264 0.6407980999479095 0  0.8381966011250105 0.6675570504584947 0  0.8585786437626906 0.6914213562373096 0  0.8824429495415054 0.7118033988749896 0  0.9092019000520907 0.7282013048376736 0  0.9381966011250106 0.7402113032590307 0  0.9687131069919539 0.7475376681190276 0  1 0.75 0  1.031286893008046 0.7475376681190276 0  1.06180339887499 0.7402113032590307 0  1.090798099947909 0.7282013048376736 0  1.117557050458495 0.7118033988749896 0  1.141421356237309 0.6914213562373095 0  1.161803398874989 0.6675570504584947 0  1.178201304837674 0.6407980999479094 0  1.190211303259031 0.6118033988749896 0  3.75 0 0  3.75 1 0  1.875 0 0  1.875 1 0  0.9375 0 0  0.9375 1 0  1.40625 1 0  5.625 1 0  5.625 0 0  2.8125 1 0  2.8125 0 0  4.6875 0 0  4.6875 1 0  6.5625 0 0  6.5625 1 0  5.15625 0.5 0  4.21875 0.5 0  2.34375 0.5 0  3.28125 0.5 0  6.09375 0.5 0  7.5 0.5 0  6.897916666666666 0.5 0  1.842708333333333 0.5 0  0 0.5 0  0.46875 0 0  5.625 0.5302734375 0  7.03125 0 0  6.09375 1 0  2.8125 0.4697265625 0  3.28125 0 0  2.34375 1 0  2.34375 0 0  3.75 0.4697265625 0  4.21875 0 0  4.21875 1 0  4.6875 0.5302734375 0  3.28125 1 0  5.15625 0 0  6.09375 0 0  5.15625 1 0  0.46875 1 0  1.40625 0 0  7.03125 1 0  0.3954638734376499 0.5975780249976004 0  6.495833333333334 0.4072265624999998 0  5.859375 0.25 0  4.905729166666666 0.26513671875 0  4.453125 0.25 0  3.531770833333333 0.73486328125 0  3.968229166666667 0.73486328125 0  2.594270833333333 0.73486328125 0  3.030729166666667 0.73486328125 0  6.328125 0.75 0  7.198958333333334 0.3125000000000002 0  7.198958333333334 0.6874999999999998 0  5.390625 0.25 0  0 0.25 0  2.109375 0.75 0  2.109375 0.25 0  1.51921323205749 0.3418883887525936 0  1.522346610178253 0.6811769608297746 0  5.375456746419271 0.75 0  4.921875 0.76513671875 0  4.437956746419271 0.75 0  3.984375 0.23486328125 0  3.500456746419271 0.25 0  2.578125 0.23486328125 0  3.046875 0.23486328125 0  5.874543253580729 0.75 0  6.642123189445656 0.6909095493086836 0  6.746354166666666 0.2391688368055553 0  0.3197109619185111 0.2850049285972083 0  6.328125 0 0  0.6313375889370429 0.2351325552547357 0  0 0.75 0  6.252283381534729 0.2693808819694041 0  0.234375 1 0  6.948437500000001 0.7543055555555555 0  0.5934018769555939 0.7694151657947577 0  1.858854166666667 0.75 0  1.858854166666667 0.25 0  1.640625 0 0  2.093229166666667 0.5 0  7.5 0.25 0  3.282227579752604 0.75 0  7.5 0.75 0  1.171875 0 0  1.303539853147731 0.2235426933121065 0  5.148177083333333 0.2575683593749998 0  2.351822916666667 0.742431640625 0  1.640625 1 0  4.202380413457425 0.7645435094236485 0  3.047822985053062 0.4701848030090332 0  2.577177014946938 0.4701848030090332 0  4.672792740482199 0.76513671875 0  4.922822985053062 0.5298151969909668 0  5.390593497949761 0.5156244924311331 0  5.610292740482199 0.76513671875 0  3.516602579752604 0.5 0  4.45496853898097 0.4865915990446593 0  5.85753146101903 0.4865915990446593 0  3.749511210123698 0.23486328125 0  3.983397420247396 0.4999999999999999 0  2.343497975411212 0.2346270081980111 0  4.219002024588788 0.2346270081980111 0  0.703125 0 0  2.8125 0.2343755075688669 0  3.046875 0 0  2.578125 0 0  3.515625 0 0  3.984375 0 0  4.453125 1 0  5.390625 1 0  2.109375 0 0  2.109375 1 0  5.625 0.2921402030705575 0  5.390625 0 0  7.265625 0 0  6.796875 0 0  6.328125 1 0  3.046875 1 0  2.578125 1 0  3.984375 1 0  3.515625 1 0  4.453125 0 0  4.921875 0 0  5.859375 0 0  0.703125 1 0  1.171875 1 0  7.265625 1 0  4.921875 1 0  5.859375 1 0  0.234375 0 0  6.796875 1 0  6.980310975276531 0.2285890127127066 0  5.149170481934885 0.772689292163473 0  3.274170481934884 0.2273107078365268 0  6.101334126790364 0.7722468376159667 0  4.678005340872584 0.3000799877067239 0  2.8125 0.6921051326382495 0  3.75 0.6921051326382495 0  0.3515624999999999 0.8134571721668546 0  0.4990405774417521 0.4070099317153735 0  0.1789273931360182 0.625 0  6.31239060814315 0.5298877111157968 0  6.456979773992304 0.1917956348713352 0  6.699870808919271 0.4406293402777773 0  1.337539480965883 0.7944303676599538 0  6.058675797563041 0.2019812164653516 0  0.8203125 0.1643029084422534 0  0.1480856513011711 0.375 0  1.090769294689562 0.1719186776982972 0  7.291088163206459 0.5 0  7.094502414936563 0.5197902199074071 0  0.6046212059042245 0.5730066483871106 0  1.707231580809486 0.6342709161352207 0  1.685961352504593 0.8193269193390785 0  1.374721602852827 0.4600373025865813 0  6.486415510043844 0.5916440776477192 0  1.5234375 0.1508863828685116 0  1.707925830421689 0.3657739208189008 0  0.1674513225045584 0.8278776664019765 0  7.138268756771176 0.1438183366439137 0  7.1484375 0.8616388888888887 0  7.328562530764119 0.819498462930605 0  4.101073710123698 0.3678637200736647 0  1.693878467219965 0.1911955120941053 0  1.577566745468488 0.5110082404081502 0  6.6796875 0.8653871806883484 0  6.498039504430512 0.825568433346395 0  0.7562556668576472 0.8333197949571929 0  4.101045914668806 0.6255195807449272 0  5.030745188395182 0.382829047309028 0  2.476364945868651 0.6095868094762166 0  2.729359843907322 0.8460525663191247 0  2.9296875 0.8740763101564099 0  3.163518307559356 0.6254622797994247 0  3.666859843907322 0.8460525663191247 0  3.8671875 0.8740763101564099 0  4.8046875 0.12592368984359 0  3.14936031382311 0.8606990583876851 0  2.4609375 0.8747622921397776 0  5.023140791101972 0.1392266772452574 0  0 0.125 0  0.1759922923594607 0.1727589856739889 0  4.5703125 0.125 0  7.327755777818006 0.1766156770456191 0  5.5078125 0.125 0  5.719712725029036 0.1460701015352787 0  4.327848962028002 0.3674169956512513 0  5.982681121544351 0.3692637923021713 0  3.398926289876302 0.6245417594909667 0  5.281756792511996 0.3827993367299961 0  2.226822645963271 0.6252438868405666 0  2.234390064317166 0.8676616584526566 0  5.2734375 0.125 0  1.96796875 0.382568359375 0  2.234651037971999 0.3674169956512511 0  1.984114583333333 0.132568359375 0  1.9921875 0.875 0  1.984114583333333 0.632568359375 0  5.748733794462357 0.8678269127183313 0  3.3984375 0.875456329184688 0  1.512925924995415 0.8582958012121853 0  1.359299372802969 0.6275861864990343 0  4.810521420483513 0.4041767793635395 0  0.2996213306116602 0.455339710363317 0  5.999933717403708 0.6388425470751088 0  5.250033449003657 0.6388713364551682 0  3.631676045992918 0.3525406652400928 0  4.3359375 0.8816499670325881 0  4.343577437052484 0.6116511299909198 0  3.375033449003656 0.3611286635448316 0  5.763152151652243 0.6249404690537395 0  4.549347848347757 0.6249404690537396 0  5.5004588702411 0.6403667365776566 0  5.976118394847484 0.8816230218343086 0  5.054722486865804 0.6338007028640954 0  3.164542163493752 0.3520519332736524 0  2.445407482032355 0.3672168403687257 0  4.8046875 0.882568359375 0  4.1015625 0.117431640625 0  2.4609375 0.117431640625 0  2.695556894938151 0.3520510350344335 0  2.929443105061849 0.3520510350344335 0  3.881979231817319 0.3670559016511187 0  3.8671875 0.117431640625 0  4.805389247695744 0.6470047893641744 0  3.399370721942191 0.1184066543556767 0  5.274370721942192 0.881593345644323 0  3.618253274934649 0.1316869186284249 0  2.6953125 0.1171877537844335 0  2.9296875 0.1171877537844335 0  2.21873344389451 0.125 0  4.3359375 0.1171877625080073 0  0.6659898565672709 0.3986593551313873 0  7.363359022954956 0.3481046411219251 0  7.363359022954956 0.6518953588780749 0  5.487719392831826 0.3828237631077121 0  2.695054578344725 0.5809158475691247 0  2.944553877887707 0.5964065668438148 0  0.3515625 0.1201898858097106 0  5.5078125 1 0  4.5703125 1 0  5.031746201297604 0.882568359375 0  3.1640625 0 0  6.2109375 1 0  6.186845385763124 0.6336356480571081 0  4.1015625 1 0  6.810399074069772 0.6495574751396682 0  0.4740615253480797 0.2509287743856873 0  7.052064303830151 0.3684417917792242 0  6.195177069665382 0.1216488332168849 0  5.72300154718324 0.4112068202852788 0  3.879157465495092 0.6111892850691246 0  3.645760045247695 0.5809158475691247 0  6.868257400485771 0.3427840810237202 0  6.612030892260864 0.1521752713064389 0  6.615666885941117 0.3151079644097221 0  4.04296875 0.8633718902669071 0  1.183031453639096 0.8486801864185936 0  6.9140625 0 0  6.859079526500421 0.1398292786950638 0  6.808232443325651 0.7957411753922057 0  6.9140625 1 0  4.544955211100143 0.3675874343205077 0  1.0546875 1 0  6.122060236165557 0.3316791557072867 0  0.5859375 0 0  5.9765625 0 0  5.44921875 0.870984788733638 0  4.51171875 0.870984788733638 0  0.7608354256382215 0.2931261274224557 0  6.386875332239937 0.3156583003094978 0  6.985654756850997 0.6147408423643147 0  6.223797257919172 0.8535621912121121 0  5.936822413218736 0.1338376546337823 0  6.23933008800134 0.4095573603773768 0  0.5414022462152697 0.1305482677949959 0  6.331360438104348 0.1370086318183389 0  0.956404929269873 0.1374266563647954 0  1.2890625 1 0  0.691305981127761 0.6764829884281737 0  3.531251607241209 0.8678916320952239 0  2.59787442813022 
[...]
<PointData  Scalars="f_71633"> 
<DataArray  type="Float64"  Name="f_71633"  format="ascii">6.8914169670815384e-01  7.0935425394993379e-01  0.0000000000000000e+00  0.0000000000000000e+00  -1.3027814433724720e+00  -1.0574020767256596e+00  -7.7064188651021293e-01  -5.5965347008915001e-01  -4.2483077188029822e-01  -3.4495017074364548e-01  -2.7661331292576125e-01  -2.6541913595384764e-01  -2.9118239631077597e-01  -3.3806169054998053e-01  -4.4606940768789766e-01  -6.2450518246386810e-01  -8.0253837149463891e-01  -8.8884107853089689e-01  -7.5867362460341981e-01  -4.5106332111274999e-01  2.5639211922365110e-02  5.7070235497957122e-01  1.0851778148053939e+00  1.5265303310476794e+00  1.7859240173383557e+00  1.8263251584129174e+00  1.6312121683367362e+00  1.2384509232923024e+00  6.8064181549755487e-01  8.7515131698466503e-02  -5.3454642130219410e-01  -1.1106894953869491e+00  -1.5466437781698636e+00  -1.8335144180491831e+00  -1.9674404831490853e+00  -1.9123618554899824e+00  -1.7915583663084973e+00  -1.6723563753494957e+00  -1.5924203782886717e+00  -1.5444399633444763e+00  -1.5131490541368684e+00  -1.4859663351334156e+00  -1.4583633146890320e+00  -1.4163403985505483e+00  1.9859834223832945e-02  -5.3846462712718024e-01  -4.8503947916056600e-01  2.8373677438005152e-01  3.8674223852537531e-01  -3.6808422172094812e-01  -6.6806542150973824e-01  2.5226932256772826e-02  4.1455576492823540e-02  -5.6558928313971457e-01  3.0621586330291056e-01  5.6353094332985659e-02  5.7812783308652638e-02  1.3297691081696025e-02  2.7337430108183420e-02  4.1551520427904318e-02  -1.5243868930103757e-01  -5.2904491883619265e-01  -7.6839265978505744e-01  2.7161149389629980e-02  0.0000000000000000e+00  8.2907352484626832e-03  -1.8838573868199332e-01  7.3448778609522813e-01  7.2727732180100202e-01  4.7123124028897505e-02  2.4689727773056056e-03  2.9137582126074726e-02  -7.6270048921477718e-01  -2.8749561684557662e-01  1.3804728874238825e-01  -3.0426403407343842e-05  -6.8774666940049112e-01  1.2411504441153889e-01  3.1488989985034488e-01  -3.8510198884141444e-01  6.0973807448633877e-01  8.2659674591740062e-02  2.5689645050744225e-02  -1.3692506394976465e-02  6.0870365249227698e-01  -2.0906948097233768e-01  -1.5993003767878447e-02  8.1825731218316677e-01  1.6392916912810567e-02  3.5586606915295305e-02  9.2952251709580921e-02  7.1073519207826508e-02  -1.4801228602258640e-01  -1.0684928886657223e+00  -1.0832165084640701e+00  -1.0931080796897055e-01  2.1756461684589203e-02  5.6285378763157754e-03  4.7932043969585751e-03  6.6998565594964948e-02  7.1487518705856556e-01  2.7552649966045939e-01  -3.5877563295557957e-01  -1.6750121315326829e+00  -7.4548443050984736e-01  4.7867699402028049e-02  -1.0085144078852694e-01  1.9894350973042145e-02  -5.3756412305053540e-03  -2.9426686956392162e-01  3.9413372426739002e-01  -1.5510816284520607e-01  3.0146581964551274e-02  1.4362981887523539e-02  1.0103362966688208e-02  7.4566424438906032e-01  1.9652497569872793e-02  7.7441383438843236e-01  7.0492933240942890e-01  2.1797387529374927e-02  6.7747100856054765e-01  4.5727006611425364e-03  6.8279393544895872e-01  3.5106124567024394e-01  -3.6824270684085408e-01  -3.3428769550460952e-01  -1.3728026191790971e-01  0.0000000000000000e+00  4.9848037097384196e-01  0.0000000000000000e+00  2.3993000629992239e-02  -2.9964546394832153e-01  7.7364684945951251e-02  1.1481233530412538e-01  -7.7621852468862620e-02  5.3049881615626890e-02  -5.7519809880306128e-01  -8.8978451187303531e-01  -9.3296465663930891e-02  -3.9569326470202310e-02  5.7697716394543706e-02  4.3095022881528416e-02  -3.9452680515951105e-01  -8.4354273725137055e-02  3.4503545960835311e-02  -1.3457770228560051e-01  -6.8356022272092309e-01  -6.8713959164112381e-01  1.4454050501221838e-01  6.9638019252751993e-01  1.3770192000734535e-01  -4.3851970914496510e-02  5.5034221618844148e-01  -3.9464496821487643e-01  1.4998323524753857e-01  3.8798966290709441e-01  4.8092510011471471e-03  -3.1151934673834564e-01  3.1794212133244892e-01  4.3412658264893364e-02  5.7133783732722133e-02  8.7761209490467545e-03  1.0752622032096499e-03  2.4035872054315333e-02  4.5970762570898815e-01  -3.3338090572776463e-01  -2.2036500317235128e-01  3.8031849418187302e-01  6.9614432392233513e-02  8.3710018233897454e-02  2.8504069520233582e-02  3.8497382745330772e-01  -9.5371758130676121e-01  -9.7873463977120635e-03  -9.7126389663995130e-02  2.8833025748139056e-02  7.1204488852615577e-01  3.7644204831091155e-02  6.3869985289172447e-03  -2.3433102765366857e-02  -3.5932934369340586e-01  2.8674293285081479e-02  -1.5072973489095086e-02  -1.5188482102475591e+00  -1.4006598537124020e+00  6.8013803106164650e-01  9.1112705025673923e-01  7.3663730498594759e-01  2.1045528744792819e-02  1.1423058939840304e-02  1.1247507653693879e-02  -1.2835734054369341e+00  2.6950836985985951e-02  5.3854150682349344e-01  7.3326632156284011e-01  4.1502967000079181e-02  -1.1027943153023936e-03  6.2138943710607656e-03  1.1204558197630605e+00  -4.0213287214173016e-01  2.1098717706605843e-01  -1.6417343112500344e+00  1.6911444960526087e-02  -3.9940261942602717e-01  -9.2161154031622627e-01  6.9512998370094126e-01  -3.9943974616653575e-04  -8.0210901000415894e-03  -2.5955518996350225e-03  -8.7501585097824713e-02  -5.1169003793124312e-01  -1.6533228171454653e+00  1.3433031004163877e-02  1.8117378870769051e-02  2.8937780182613648e-01  -4.9381658652885202e-01  5.1297855419629584e-02  -5.4093418954912753e-01  -1.1559127529102915e+00  -2.8691065164350510e-01  -2.7265025943904686e-01  -4.1454992344786756e-01  -7.9685498598824966e-01  6.3274449120578474e-02  5.7406287937536549e-01  -5.2412120806071577e-02  8.3874699077531617e-02  7.0965538052224930e-01  7.1110301776065810e-01  5.9278681969366559e-02  1.2177274029905446e-03  5.1022478534829198e-02  3.9082824085672242e-02  5.7107568798891103e-02  3.1223867483764815e-02  -1.0115410690689962e-01  7.8107220163414426e-02  1.0052685450295477e-01  2.4684141615238231e-01  6.8558186761822196e-02  -2.3385261162652185e-01  -1.1384027849220775e+00  -3.5176693027618744e-01  3.5521813460960933e-01  1.8813260271707136e-01  2.9591480003042341e-02  5.2990176978567283e-01  -4.2955218617630425e-01  -1.5889657615031136e+00  4.6666617544109973e-02  7.8189797859551058e-01  2.9081534194466296e-02  8.0762583597189554e-03  -2.1860230256623700e-01  3.6131710905438197e-01  -5.5459486619907482e-02  -3.7129734370036588e-01  3.0752241648132169e-02  -3.5357291618871350e-01  1.6202744492243702e-02  2.8199717254852204e-02  2.1104036936461644e-02  -5.3816580221929355e-01  -6.2319878636808879e-01  -1.4136731492467677e-01  1.4381980189422608e-01  3.9727029433741939e-01  -3.7225248736506256e-01  -2.3840751187332912e-01  -2.9587433713544997e-01  1.3975637930481913e-02  7.9652279334020519e-03  -4.5252692617500545e-01  1.9459755334394584e-02  -1.8962965552388059e-01  4.7446775631485832e-01  1.1757305383067858e-01  -3.1168855953036706e-01  1.3441369217711285e-01  1.0836501092545117e+00  6.2026250914439911e-03  -9.4024500379284617e-04  5.1988498597494562e-02  -1.4154079362169374e+00  -7.2915354732907212e-01  7.1626167774149729e-01  4.2249634034098288e-02  -4.2958903974074161e-02  -4.9185559528231663e-02  -1.6112650616402494e-01  2.4530083628225723e-02  2.3330263281466066e-02  2.0014298788994811e-01  9.8885114082892731e-03  7.6900288621144686e-01  1.3649349658507680e-03  2.5268602787909759e-02  3.4596291774236280e-02  -1.3148607049708652e+00  -7.9340127082824918e-01  6.9589949805499950e-03  1.0603437883553463e-02  9.0126750130118411e-03  -2.3477966358721158e-01  -1.2003034239098331e+00  1.8329991229469784e-02  1.0008120333313698e-02  5.1948488164862043e-03  -1.9363212361102156e-02  -2.9793250336214744e-02  -8.1071549563767975e-01  2.4155350543071993e-02  7.2869000772011161e-01  3.5256413882800465e-02  2.1171806248151015e-02  1.9841104548479815e-01  6.9286697436048506e-01  1.7409087858950768e-02  3.5449256580115996e-03  2.3710990547662035e-02  3.3004138497017874e-02  2.3931623083776769e-02  7.3265463987701795e-01  1.9194701907691940e-02  3.0895790967746323e-01  -9.0512622427081280e-01  9.6086834982993141e-01  2.9162399732510064e-01  -5.2610211181087829e-01  -1.3416608579510387e+00  -5.3007679514626083e-01  -2.0381011066930477e-01  7.4258108046082183e-01  6.2271623906780960e-01  1.1869998011963083e-01  2.5398417867933076e-01  1.4545545109535022e-02  -3.3828379739316522e-01  -3.8692942849866220e-02  -4.7409718449116754e-03  -3.9146036865205435e-03  5.2784498045054140e-01  -9.3044610680093121e-01  7.1683766796866832e-01  -5.6640751023010256e-02  7.4938664719855008e-01  7.7487228710815328e-02  -3.0605227121915973e-01  2.0807730951657374e-01  -3.6180335759086513e-01  -3.6861964171701483e-01  -2.9774887624276325e-01  -3.1783547143344477e-02  -3.4837360297097175e-01  3.9769387087489627e-01  0.0000000000000000e+00  0.0000000000000000e+00  6.9170606626263675e-01  7.2750503478673079e-01  7.2372754052628707e-01  0.0000000000000000e+00  0.0000000000000000e+00  2.1895239597131317e-02  6.0449365327972904e-01  -8.8551221481385396e-03  -1.6009842812412434e+00  -1.1013386718714382e+00  -2.7192789209907017e-02  7.0928837602484074e-01  -2.7330013678391696e-01  6.9026580293268935e-01  8.3358356139033238e-03  2.8987496133868036e-02  -1.4491912371738630e-01  1.1913750887311313e-01  5.9990353040648550e-02  4.0299259605972068e-02  2.6138557188954303e-01  -4.0791740308392270e-02  7.1934857170946429e-02  -2.2958724297653466e-01  2.6335432600748127e-01  3.1971208529161127e-01  6.8732190746052824e-01  4.8934217970481836e-01  3.4100710731365967e-02  3.6950413740693480e-02  2.8647753245076658e-02  3.8489024338801692e-02  2.7565237177740676e-02  -4.0459582265148376e-02  3.4679635597679691e-02  -3.3491138329850878e-01  1.0385987467955392e-02  8.1526707124401396e-02  2.5855006588960933e-01  -4.8882701583318000e-01  3.0877679079666098e-01  -1.3398593860099750e-01  -2.3173596408158900e-01  -8.3870713501050831e-01  -4.0337417315548818e-01  -2.6089326155439602e-01  -3.3339616700704688e-01  -6.9827455554859363e-01  -8.0210151737838076e-01  3.5503009655423343e-02  -1.5261053653890741e-01  -4.8204680531801497e-01  -5.8627660031667694e-01  -6.7331766193177663e-04  -3.5008268366459022e-01  3.4485257548012266e-02  2.8793268185300040e-02  4.1021323952159820e-03  3.1212779861367894e-03  -1.5203034711747251e-01  -3.4870174216473815e-01  2.6979039603869621e-02  -3.2180401454712337e-01  5.9786555696813647e-02  1.9361725662641639e-02  -5.6720333914958988e-02  2.2498408469184456e-02  -3.1925051694489442e-01  1.0224799847288288e-01  -8.5034272809501488e-01  -7.9121281330645887e-02  2.7762792872953686e-02  1.1830055435367361e-01  7.5149507579936214e-02  5.4663624384930512e-02  3.8064624565661491e-03  2.3119834683133889e-01  5.6635549031371468e-01  1.4806215941268175e-01  2.5659949192478607e-02  7.1536851318899541e-01  1.3948620538639794e-01  -2.3485266077369199e-01  3.0689394261225900e-01  1.2343672835136714e-01  4.6645572292223653e-01  -3.9072479293387385e-01  1.6644436582552449e-01  1.1028062631951885e-01  3.8931979607383899e-01  1.9248601590169667e-01  -9.9316481915301694e-02  2.9088377649743102e-01  -4.6958874537003023e-02  5.3086233019866136e-01  3.1569619190626952e-02  3.4774741446631835e-01  -3.5684179491366980e-01  6.6368997291249870e-02  2.4170477320136974e-01  4.1020219813744256e-02  5.7489945680040351e-02  5.2919257041146694e-02  6.1391083895410141e-02  8.3646494995443132e-02  -4.8011580853328059e-02  6.2267674270305262e-01  6.2424678113684205e-02  -5.3309783568199953e-01  -3.1431096202968689e-02  -6.1729992557583400e-02  -7.1081779275000267e-01  -1.3318282055188247e-02  -1.8192588657376538e-02  -1.6713212741061209e-01  2.6097176218055196e-01  5.9514795566647705e-01  7.0692256234636038e-03  6.5034047160738140e-01  7.1123040145488975e-03  1.8374004509570177e-02  -4.3491763306159337e-01  -4.4205472090899744e-01  2.7725411592229236e-02  -4.1184761449605159e-02  5.7455444797782286e-02  -8.1510145615383851e-03  1.1502170151881787e-02  1.8486326152904679e-02  1.5708109844484560e-02  4.9447095779908048e-03  1.5461686134582366e-03  -3.0171962827972876e-01  -3.4543785618827862e-04  -8.0144147606045113e-01  2.4296719555682994e-02  -1.6062965968801476e-01  4.7960131364047788e-02  -7.4697982595849930e-03  -5.3212175684791224e-02  -9.2698205274357803e-01  -1.8800249229152749e-01  -4.5912632432990719e-01  1.5985794050429450e-01  2.7837267145140857e-02  2.6107658870474081e-02  3.1039901360987325e-02  -2.6643685861592842e-02  -1.2506511995990939e-02  -3.1049522777489125e-01  -3.5593648028974750e-01  5.9527901918296332e-03  -1.1318022889556455e-01  1.8466027093285053e-02  5.5966296085033507e-02  1.4144752709703709e-01  3.8622739847983707e-03  1.9184436576085394e-02  -7.2326998368962592e-01  2.3303220194317360e-02  -1.1331651214686485e+00  -1.4588776902727734e+00  -8.2252532046065219e-01  -1.1821533245720279e+00  -5.6002605824978913e-01  -1.7195682829528234e+00  -1.0314015458309163e+00  -1.5206950507595989e+00  -1.3743898987630188e-01  7.2645628751743865e-02  -3.7898323096222064e-01  2.3263145332904314e-02  -1.1657574828259407e+00  6.7617987049586736e-01  2.5781257925345186e-01  -4.6562924059280475e-01  -2.5906122006258830e-01  1.6904377651603086e-02  1.4029432115005977e-02  7.8042271490710538e-02  7.3299662732020676e-01  7.1723844132915993e-01  7.6062443725238771e-01  2.8362006116227183e-02  3.3342946225401481e-02  2.6212060819453771e-02  8.5278307208990922e-01  7.9854459490316898e-01  8.6501820543745445e-01  -7.6245351548479923e-01  -1.0011407061285316e+00  -1.1655244226116315e+00  -1.0540393652032356e+00  1.7410251587609685e-02  7.7950192498190711e-03  4.3341739473883360e-02  9.7796263782721871e-01  8.9564256658729824e-01  -7.4306902100745531e-01  -9.8667097929554393e-01  -9.7960482455944076e-01  -6.4515774620025268e-01  -2.0156799744373695e+00  -1.3790360908210837e-03  -2.9806073231383880e-04  -3.1677511104470246e-01  1.3548249491639811e-02  1.2733031017663096e-02  6.2360137172311376e-03  2.8057190943488897e-02  -1.2683045892103928e-01  2.6343121956698499e-02  1.4272699313344823e+00  2.6217020825801140e-02  2.9655862329944178e-02  -4.2711387072591834e-03  7.2070852652077011e-01  7.2344333114831572e-01  7.5389771940561390e-01  6.1677166954520798e-03  1.0536691431649470e-02  5.2016363333509598e-02  -3.9444703738511500e-01  7.1704328342800139e-01  -3.6330347569834631e-01  -1.1562092751456622e-01  1.8961499592979627e-02  -3.9542381880914901e-04  5.5796955329683170e-03  1.4212476050790861e-02  9.0332721268724359e-01  -5.9895190665363207e-01  7.4003744288127815e-01  -1.2547270800973871e+00  -5.7985779131667159e-01  8.2032152635456990e-03  4.3113585421724132e-03  -1.6604481292046531e+00  4.3712350899797192e-02  -1.7008452872660224e-01  6.3957502022654322e-01  7.3612209657544614e-01  4.9825273457999786e-01  4.6470269810238600e-02  -6.1023113628744952e-01  -1.9328240941783197e-03  -2.2402812262231242e-03  -9.4446008620410696e-03  6.5434465518858760e-03  2.0106461313656415e-03  -9.7130358512380000e-01  7.0942105333346195e-01  -1.6444615272809718e-02  4.0377501025931456e-01  -3.2156670810906290e-01  -1.0298633296941091e+00  -1.3317694712987149e+00  -5.2669779815510420e-01  7.2409149659154592e-01  1.1130984584002807e-01  1.0618423508826387e+00  1.9719339606792379e-02  2.7822491455156945e-02  1.3747744873706304e-02  2.2838841092596630e-02  3.5015065145852210e-02  1.2551666479832435e-01  -1.1138572449559384e-02  -8.2032241351227934e-03  2.0193402371447679e-03  -7.3290303453306107e-03  3.2496811419621702e-03  4.6300588636554385e-01  6.8453632126423036e-01  6.9752206289066598e-01  2.8802970836798600e-02  3.0907510755697926e-01  -1.8714650146233136e-01  4.5872697159263641e-02  7.0972306963465503e-01  1.9998692359267971e-02  6.8971807623252013e-01  6.0840055546340071e-03  1.3759816038823482e-02  2.0848893747811145e-03  6.0600830665959275e-03  7.1206540649284811e-01  -1.8260287404745854e-01  2.1202516412240170e-02  -1.1929567387696759e-01  2.5399919303719126e-02  1.4817988123788511e-02  5.4083753389344992e-04  -2.2415091752349013e-03  7.3177638959263946e-01  3.7435294425955515e-02  5.2313643002119903e-03  2.4164712692342863e-01  1.3958626048439060e-02  5.9101367467290533e-01  9.1573337320494108e-03  -6.8300381958683243e-01  1.8601696468037965e-01  -4.6268214110592271e-01  -1.3884201939360893e-01  6.9782581712963687e-01  1.5296538547496071e-02  -8.1967952506112468e-02  9.0661192363627754e-02  -9.9190147841549753e-02  -7.7204909040055580e-01  1.8291915506525830e-01  6.4492890707198958e-01  9.7681571787382782e-01  3.0177872816258850e-02  -1.4010747835801294e+00  -4.9717326585085836e-01  -1.5978160989421100e+00  -7.6612537576467132e-01  2.1679904481242566e-02  3.5373229496119922e-02  5.2188468724500290e-04  1.0011907276589472e-02  6.8399340924236406e-03  2.0623961105847468e-03  -4.5643548504611903e-01  5.8238028398712616e-01  -4.1959539841253779e-01  5.8581896790505177e-02  3.0478277586258679e-02  3.0950737789606116e-02  2.6314229436973188e-02  -2.6582057595631817e-03  7.0353437496457089e-02  8.5990094472605361e-02  -2.8239168559017108e-01  3.2305569340491763e-01  -6.2807045670698214e-01  -3.9967545261765830e-01  -9.3780833545667641e-01  2.6070037696884513e-01  -2.9501876520066345e-01  7.8382476098800988e-02  7.9151647336308217e-01  -1.6720596034669060e-02  4.6881701772148114e-02  5.4545515987301896e-02  4.1878664320339994e-02  -1.0132154791005150e+00  -7.3093070687165018e-01  8.5086066791260115e-02  7.7192483859723451e-02  8.9536638842640709e-02  3.5625415973345904e-02  -3.1870863622535434e-01  1.9948284086057819e-01  2.8287257972970725e-01  5.2908984270352233e-02  -1.8432380600945297e-01  -1.6730922770554946e-01  -2.8920778916701839e-01  -4.4995063426069687e-01  1.9159828977172833e-01  3.0253362963610259e-01  -1.5800644374831030e+00  1.5851276577860737e-01  2.9446478911507118e-02  2.9953149184197590e-02  2.8613407580389116e-02  5.2827170058308962e-02  -1.7912471402308286e-01  7.1360351078454981e-02  2.4487111519564276e-02  -3.0367248873823882e-01  2.1331246092672604e-01  -4.6314345591495565e-01  2.0892856934565304e-01  -1.4599284750979249e-01  1.8338579798017290e-01  6.8032108464190777e-02  5.0532846409994600e-02  3.3790176731674032e-01  7.7916105890010967e-02  3.3830793825503186e-01  7.6530604469812982e-02  6.2436127126982238e-02  5.8371521454666964e-01  5.6101081238658601e-01  4.7374585866748053e-01  5.6694794279143645e-01  3.1293031388381298e-02  5.5782627570656329e-01  3.9827259897194089e-01  1.3241648376188682e+00  -1.3719547860244650e+00  -1.4948461880820756e+00  2.3796978380325109e-01  -1.5313870314582645e+00  -9.3776194573767258e-01  -2.4038489455184905e-01  1.0697070679401115e+00  -1.3500750591757029e+00  1.3509681597438652e+00  -2.8076111351562094e-01  -2.5842681679680407e-01  -6.8972705875819074e-01  -3.3325960609003097e-01  1.6063593891702039e+00  -1.4803563759322576e+00  -2.0770546869492582e-01  -1.5329031627999907e+00  2.9979786668627306e-01  -1.2851285889519455e+00  -3.6791681338591520e-01  -9.9604056421904974e-01  6.4669570737850812e-01  -1.4758091346609614e+00  -1.5868445874465889e+00  1.6294779712422911e+00  1.0215603666278574e+00  -1.1899279260772602e+00  -1.3725323906569620e+00  -1.2647829299031688e+00  -9.0785826929084124e-01  -1.1553079671451889e+00  -6.5500888140820468e-01  -7.0818774118900241e-01  -1.0247919411529423e+00  -4.8516564800875650e-01  -6.0543498325934242e-01  -4.2205987017227087e-01  -3.8025741298203625e-01  -3.7984582205411166e-01  -3.1033689170799506e-01  -3.5144712098859338e-01  -2.6082750148289374e-01  -2.7282422885437169e-01  -3.3403825018228450e-01  -2.7820140077519695e-01  -2.7189677389989020e-01  -2.8024897001470284e-01  -3.0904652058923926e-01  -2.8654308456429822e-01  -3.8390873254550240e-01  -3.0260187607594990e-01  -3.9867375973124075e-01  -5.2808924631499443e-01  -4.5535400323847136e-01  -7.0769560999893499e-01  -5.1867405409214951e-01  -8.2865066309856006e-01  -5.9715229054341568e-01  -5.8705231298542793e-01  -8.0521227871759260e-01  -5.8492291835512489e-01  -5.7215737127766020e-01  -1.6495720807758019e-01  -5.63973589786187