<?xml version="1.0"?>
<VTKFile type="UnstructuredGrid"  version="0.1"  >
<UnstructuredGrid>
<Piece  NumberOfPoints="4269" NumberOfCells="8234">
<Points>
<DataArray  type="Float64"  NumberOfComponents="3"  format="ascii">0 1 0  0 0 0  7.5 0 0  7.5 1 0  1.197537668119028 0.5812868930080463 0  1.2 0.55 0  1.197537668119028 0.5187131069919538 0  1.190211303259031 0.4881966011250105 0  1.178201304837674 0.4592019000520907 0  1.161803398874989 0.4324429495415054 0  1.141421356237309 0.4085786437626905 0  1.117557050458495 0.3881966011250105 0  1.090798099947909 0.3717986951623264 0  1.06180339887499 0.3597886967409693 0  1.031286893008046 0.3524623318809725 0  1 0.35 0  0.9687131069919538 0.3524623318809725 0  0.9381966011250105 0.3597886967409694 0  0.9092019000520906 0.3717986951623264 0  0.8824429495415054 0.3881966011250105 0  0.8585786437626904 0.4085786437626905 0  0.8381966011250105 0.4324429495415054 0  0.8217986951623264 0.4592019000520907 0  0.8097886967409692 0.4881966011250107 0  0.8024623318809725 0.5187131069919539 0  0.8 0.55 0  0.8024623318809725 0.5812868930080463 0  0.8097886967409693 0.6118033988749896 0  0.8217986951623264 0.6407980999479095 0  0.8381966011250105 0.6675570504584947 0  0.8585786437626906 0.6914213562373096 0  0.8824429495415054 0.7118033988749896 0  0.9092019000520907 0.7282013048376736 0  0.9381966011250106 0.7402113032590307 0  0.9687131069919539 0.7475376681190276 0  1 0.75 0  1.031286893008046 0.7475376681190276 0  1.06180339887499 0.7402113032590307 0  1.090798099947909 0.7282013048376736 0  1.117557050458495 0.7118033988749896 0  1.141421356237309 0.6914213562373095 0  1.161803398874989 0.6675570504584947 0  1.178201304837674 0.6407980999479094 0  1.190211303259031 0.6118033988749896 0  3.75 0 0  3.75 1 0  1.875 0 0  1.875 1 0  0.9375 0 0  0.9375 1 0  1.40625 1 0  5.625 1 0  5.625 0 0  2.8125 1 0  2.8125 0 0  4.6875 0 0  4.6875 1 0  6.5625 0 0  6.5625 1 0  5.15625 0.5 0  4.21875 0.5 0  2.34375 0.5 0  3.28125 0.5 0  6.09375 0.5 0  7.5 0.5 0  6.897916666666666 0.5 0  1.842708333333333 0.5 0  0 0.5 0  0.46875 0 0  5.625 0.5302734375 0  7.03125 0 0  6.09375 1 0  2.8125 0.4697265625 0  3.28125 0 0  2.34375 1 0  2.34375 0 0  3.75 0.4697265625 0  4.21875 0 0  4.21875 1 0  4.6875 0.5302734375 0  3.28125 1 0  5.15625 0 0  6.09375 0 0  5.15625 1 0  0.46875 1 0  1.40625 0 0  7.03125 1 0  0.3954638734376499 0.5975780249976004 0  6.495833333333334 0.4072265624999998 0  5.859375 0.25 0  4.905729166666666 0.26513671875 0  4.453125 0.25 0  3.531770833333333 0.73486328125 0  3.968229166666667 0.73486328125 0  2.594270833333333 0.73486328125 0  3.030729166666667 0.73486328125 0  6.328125 0.75 0  7.198958333333334 0.3125000000000002 0  7.198958333333334 0.6874999999999998 0  5.390625 0.25 0  0 0.25 0  2.109375 0.75 0  2.109375 0.25 0  1.51921323205749 0.3418883887525936 0  1.522346610178253 0.6811769608297746 0  5.375456746419271 0.75 0  4.921875 0.76513671875 0  4.437956746419271 0.75 0  3.984375 0.23486328125 0  3.500456746419271 0.25 0  2.578125 0.23486328125 0  3.046875 0.23486328125 0  5.874543253580729 0.75 0  6.642123189445656 0.6909095493086836 0  6.746354166666666 0.2391688368055553 0  0.3197109619185111 0.2850049285972083 0  6.328125 0 0  0.6313375889370429 0.2351325552547357 0  0 0.75 0  6.252283381534729 0.2693808819694041 0  0.234375 1 0  6.948437500000001 0.7543055555555555 0  0.5934018769555939 0.7694151657947577 0  1.858854166666667 0.75 0  1.858854166666667 0.25 0  1.640625 0 0  2.093229166666667 0.5 0  7.5 0.25 0  3.282227579752604 0.75 0  7.5 0.75 0  1.171875 0 0  1.303539853147731 0.2235426933121065 0  5.148177083333333 0.2575683593749998 0  2.351822916666667 0.742431640625 0  1.640625 1 0  4.202380413457425 0.7645435094236485 0  3.047822985053062 0.4701848030090332 0  2.577177014946938 0.4701848030090332 0  4.672792740482199 0.76513671875 0  4.922822985053062 0.5298151969909668 0  5.390593497949761 0.5156244924311331 0  5.610292740482199 0.76513671875 0  3.516602579752604 0.5 0  4.45496853898097 0.4865915990446593 0  5.85753146101903 0.4865915990446593 0  3.749511210123698 0.23486328125 0  3.983397420247396 0.4999999999999999 0  2.343497975411212 0.2346270081980111 0  4.219002024588788 0.2346270081980111 0  0.703125 0 0  2.8125 0.2343755075688669 0  3.046875 0 0  2.578125 0 0  3.515625 0 0  3.984375 0 0  4.453125 1 0  5.390625 1 0  2.109375 0 0  2.109375 1 0  5.625 0.2921402030705575 0  5.390625 0 0  7.265625 0 0  6.796875 0 0  6.328125 1 0  3.046875 1 0  2.578125 1 0  3.984375 1 0  3.515625 1 0  4.453125 0 0  4.921875 0 0  5.859375 0 0  0.703125 1 0  1.171875 1 0  7.265625 1 0  4.921875 1 0  5.859375 1 0  0.234375 0 0  6.796875 1 0  6.980310975276531 0.2285890127127066 0  5.149170481934885 0.772689292163473 0  3.274170481934884 0.2273107078365268 0  6.101334126790364 0.7722468376159667 0  4.678005340872584 0.3000799877067239 0  2.8125 0.6921051326382495 0  3.75 0.6921051326382495 0  0.3515624999999999 0.8134571721668546 0  0.4990405774417521 0.4070099317153735 0  0.1789273931360182 0.625 0  6.31239060814315 0.5298877111157968 0  6.456979773992304 0.1917956348713352 0  6.699870808919271 0.4406293402777773 0  1.337539480965883 0.7944303676599538 0  6.058675797563041 0.2019812164653516 0  0.8203125 0.1643029084422534 0  0.1480856513011711 0.375 0  1.090769294689562 0.1719186776982972 0  7.291088163206459 0.5 0  7.094502414936563 0.5197902199074071 0  0.6046212059042245 0.5730066483871106 0  1.707231580809486 0.6342709161352207 0  1.685961352504593 0.8193269193390785 0  1.374721602852827 0.4600373025865813 0  6.486415510043844 0.5916440776477192 0  1.5234375 0.1508863828685116 0  1.707925830421689 0.3657739208189008 0  0.1674513225045584 0.8278776664019765 0  7.138268756771176 0.1438183366439137 0  7.1484375 0.8616388888888887 0  7.328562530764119 0.819498462930605 0  4.101073710123698 0.3678637200736647 0  1.693878467219965 0.1911955120941053 0  1.577566745468488 0.5110082404081502 0  6.6796875 0.8653871806883484 0  6.498039504430512 0.825568433346395 0  0.7562556668576472 0.8333197949571929 0  4.101045914668806 0.6255195807449272 0  5.030745188395182 0.382829047309028 0  2.476364945868651 0.6095868094762166 0  2.729359843907322 0.8460525663191247 0  2.9296875 0.8740763101564099 0  3.163518307559356 0.6254622797994247 0  3.666859843907322 0.8460525663191247 0  3.8671875 0.8740763101564099 0  4.8046875 0.12592368984359 0  3.14936031382311 0.8606990583876851 0  2.4609375 0.8747622921397776 0  5.023140791101972 0.1392266772452574 0  0 0.125 0  0.1759922923594607 0.1727589856739889 0  4.5703125 0.125 0  7.327755777818006 0.1766156770456191 0  5.5078125 0.125 0  5.719712725029036 0.1460701015352787 0  4.327848962028002 0.3674169956512513 0  5.982681121544351 0.3692637923021713 0  3.398926289876302 0.6245417594909667 0  5.281756792511996 0.3827993367299961 0  2.226822645963271 0.6252438868405666 0  2.234390064317166 0.8676616584526566 0  5.2734375 0.125 0  1.96796875 0.382568359375 0  2.234651037971999 0.3674169956512511 0  1.984114583333333 0.132568359375 0  1.9921875 0.875 0  1.984114583333333 0.632568359375 0  5.748733794462357 0.8678269127183313 0  3.3984375 0.875456329184688 0  1.512925924995415 0.8582958012121853 0  1.359299372802969 0.6275861864990343 0  4.810521420483513 0.4041767793635395 0  0.2996213306116602 0.455339710363317 0  5.999933717403708 0.6388425470751088 0  5.250033449003657 0.6388713364551682 0  3.631676045992918 0.3525406652400928 0  4.3359375 0.8816499670325881 0  4.343577437052484 0.6116511299909198 0  3.375033449003656 0.3611286635448316 0  5.763152151652243 0.6249404690537395 0  4.549347848347757 0.6249404690537396 0  5.5004588702411 0.6403667365776566 0  5.976118394847484 0.8816230218343086 0  5.054722486865804 0.6338007028640954 0  3.164542163493752 0.3520519332736524 0  2.445407482032355 0.3672168403687257 0  4.8046875 0.882568359375 0  4.1015625 0.117431640625 0  2.4609375 0.117431640625 0  2.695556894938151 0.3520510350344335 0  2.929443105061849 0.3520510350344335 0  3.881979231817319 0.3670559016511187 0  3.8671875 0.117431640625 0  4.805389247695744 0.6470047893641744 0  3.399370721942191 0.1184066543556767 0  5.274370721942192 0.881593345644323 0  3.618253274934649 0.1316869186284249 0  2.6953125 0.1171877537844335 0  2.9296875 0.1171877537844335 0  2.21873344389451 0.125 0  4.3359375 0.1171877625080073 0  0.6659898565672709 0.3986593551313873 0  7.363359022954956 0.3481046411219251 0  7.363359022954956 0.6518953588780749 0  5.487719392831826 0.3828237631077121 0  2.695054578344725 0.5809158475691247 0  2.944553877887707 0.5964065668438148 0  0.3515625 0.1201898858097106 0  5.5078125 1 0  4.5703125 1 0  5.031746201297604 0.882568359375 0  3.1640625 0 0  6.2109375 1 0  6.186845385763124 0.6336356480571081 0  4.1015625 1 0  6.810399074069772 0.6495574751396682 0  0.4740615253480797 0.2509287743856873 0  7.052064303830151 0.3684417917792242 0  6.195177069665382 0.1216488332168849 0  5.72300154718324 0.4112068202852788 0  3.879157465495092 0.6111892850691246 0  3.645760045247695 0.5809158475691247 0  6.868257400485771 0.3427840810237202 0  6.612030892260864 0.1521752713064389 0  6.615666885941117 0.3151079644097221 0  4.04296875 0.8633718902669071 0  1.183031453639096 0.8486801864185936 0  6.9140625 0 0  6.859079526500421 0.1398292786950638 0  6.808232443325651 0.7957411753922057 0  6.9140625 1 0  4.544955211100143 0.3675874343205077 0  1.0546875 1 0  6.122060236165557 0.3316791557072867 0  0.5859375 0 0  5.9765625 0 0  5.44921875 0.870984788733638 0  4.51171875 0.870984788733638 0  0.7608354256382215 0.2931261274224557 0  6.386875332239937 0.3156583003094978 0  6.985654756850997 0.6147408423643147 0  6.223797257919172 0.8535621912121121 0  5.936822413218736 0.1338376546337823 0  6.23933008800134 0.4095573603773768 0  0.5414022462152697 0.1305482677949959 0  6.331360438104348 0.1370086318183389 0  0.956404929269873 0.1374266563647954 0  1.2890625 1 0  0.691305981127761 0.6764829884281737 0  3.531251607241209 0.8678916320952239 0  2.59787442813022 
[...]
<PointData  Scalars="f_71633"> 
<DataArray  type="Float64"  Name="f_71633"  format="ascii">8.0633384302455047e-01  6.0400817386125127e-01  0.0000000000000000e+00  0.0000000000000000e+00  -8.1379357281969034e-01  -1.1934494538907015e+00  -1.4528844487659802e+00  -1.4585219953483171e+00  -1.3723142469998777e+00  -1.3100796960250352e+00  -1.3046717013301283e+00  -1.3459663136867344e+00  -1.4147782520835801e+00  -1.5306282871109791e+00  -1.7162030112192412e+00  -1.9410137877184350e+00  -2.0735079163897163e+00  -2.0489904215101049e+00  -1.7445488877203401e+00  -1.2803826537881722e+00  -6.2924435833829517e-01  6.7265958202185783e-02  7.1441707344160876e-01  1.2899630115458676e+00  1.6696388792514192e+00  1.8283984851586053e+00  1.7566300126476211e+00  1.4940983691086451e+00  1.0846656371209482e+00  6.3676105603047817e-01  1.7394729350961260e-01  -2.3307251777376919e-01  -5.1868120580983901e-01  -6.7646842845350319e-01  -6.9671395710196216e-01  -6.0127648739829787e-01  -4.7805283003010512e-01  -3.8964551910763323e-01  -3.5036235244276931e-01  -3.4327543293549462e-01  -3.3517401759471704e-01  -3.8356650293919514e-01  -4.6608943063962444e-01  -5.7190125615591725e-01  -2.9417842228111200e-02  2.9775054647405469e-01  1.4681916219884500e-01  -5.8861674377482277e-02  -1.6613127805029704e-01  3.8064701516830041e-01  1.0530748308526709e-01  2.8404740777760281e-02  2.4262132744778026e-02  3.3411918485154812e-01  -4.8474325530023959e-01  1.7235821275813140e-01  -2.4490434998038160e-01  1.2911206096160159e-02  1.9567483474588369e-02  -2.7278571607367720e-02  -2.9856629520916167e-01  -1.5033595024957203e+00  -9.9228072778351306e-01  6.4286731326485928e-03  0.0000000000000000e+00  1.1972712854885508e-02  -9.1642410528918050e-01  7.3724717115873062e-01  5.4559553127379601e-01  -3.4650067844629684e-01  1.8787652207543552e-03  1.7583151933161456e-02  -3.2256663313887907e-01  4.3073172401497872e-01  -4.0994094387115521e-01  2.9183607208933660e-01  -3.5298662758424276e-01  4.5810222455897019e-02  2.8976924498512990e-01  -9.9829112146928634e-01  -4.6303570727250359e-01  -3.9951876378798497e-02  6.5772102152374903e-02  2.3480332516527508e-01  8.0249690492629933e-01  -4.4386975371173459e-01  -1.1211049104662809e-02  8.6626236723855232e-01  9.7923964932335565e-03  1.2719622108635156e-01  -7.1802746238554156e-03  1.5258539307847263e-01  -1.4730821345552996e+00  2.1945718921521465e-01  1.5435027219117237e-01  9.5044846096450156e-02  9.9051480188749493e-03  5.3368885560188808e-03  5.9634984906308895e-03  -1.1925247851188302e-01  6.2942569423362260e-01  -5.3731562521025389e-01  2.5296025237386144e-01  -7.0557982207307302e-01  -7.4811831921373681e-02  1.0020859330864111e-01  5.2127124001107243e-02  -4.6508936120452005e-01  -3.6970192497482851e-01  5.7581604079478155e-02  -7.7913416845382208e-02  -7.0107803100910260e-01  -1.4973237238916042e-02  5.7911593253315002e-03  7.6839596297640818e-03  6.5723500766429199e-01  2.7738032070227174e-02  5.2945831685335620e-01  7.9843276544187225e-01  3.7379208247637977e-02  8.0164985908482089e-01  4.5520646455244574e-03  8.9850119422068342e-01  -1.1573557621320131e-01  -1.0285796011889652e-01  -2.8575444495037788e-01  -5.8468978659029613e-01  0.0000000000000000e+00  -1.0329616286822130e+00  0.0000000000000000e+00  -4.7569483688435266e-01  -8.1161467655335329e-01  -1.7147457731467836e-02  -1.5315219396160535e+00  2.2992348007022040e-01  3.0524414196413230e-01  -3.3715120503703666e-01  -5.9456837701472598e-01  -6.7684208363583043e-01  -1.5889309300567836e-01  -2.8130122782437561e-01  -4.1804863269833334e-03  -9.6538503049609470e-01  -7.6356729470367624e-01  -5.1240859485986841e-02  -1.0400394324114515e-01  -1.0382299047274435e-01  1.2495813589371417e-01  -4.1928271579981508e-01  3.5071688095640730e-01  -5.4386140361287827e-01  -4.6065179505545217e-01  -7.1233018713606755e-05  2.7318129202917846e-01  -2.2381174235583354e-01  -5.3997903042707754e-02  2.0289413997034730e-01  3.7475703325140436e-01  -3.9881307590921367e-01  -5.4771822336339298e-04  -4.6511710532766148e-02  7.7437693649060543e-03  1.6386123272725554e-03  2.0802478971273693e-02  2.0732493433153157e-01  2.0797011537889765e-01  3.5563066475739191e-01  -4.6889494751781957e-01  4.1939533768367243e-01  4.5610557829705838e-03  9.9371731296178850e-02  7.6734124724595276e-01  -3.2120621818824059e-02  -7.8247400750885363e-03  1.4366886345605059e-01  -3.0226424131943017e-02  5.9927157124958863e-01  3.4978453923169554e-02  3.9223950799424498e-03  1.7076916477347337e-01  2.3294877847019294e-02  1.1447627312587208e-02  -2.4042091143046068e-01  2.4889865121852986e-01  -1.9212686061418238e-01  8.1013188363820432e-01  8.2889902706157326e-01  7.8991166565671977e-01  3.6863605292019083e-02  1.7568476734485253e-02  1.0181952213739289e-02  -1.7170872789084571e-01  6.8956310967069043e-02  7.7789284344783133e-02  6.8634973881985628e-01  -6.2903890721097033e-01  -1.4220229536341265e-03  6.3377864446586638e-03  1.1636356749743675e+00  -2.1099135982379782e-01  2.1756570643313863e-01  -2.2378968405826942e+00  1.3767417619352955e-02  -3.8652810029267620e-01  -4.1638916895481654e-01  8.0433733695366505e-01  -7.6466233986704384e-04  -6.3227098218096491e-03  -2.7724814783227740e-03  -5.3496658558943133e-01  -1.6380431220174077e-01  -4.6808917219927337e-01  1.4054129018892216e-02  1.6048931679908153e-02  7.2886199597117407e-01  1.2505090032336982e-02  -6.3169116162266323e-02  -1.6589034707378547e+00  3.5734537186502296e-01  2.9331319815290718e-01  -6.3648043820620614e-01  -4.8764381410419347e-02  3.5396651224365822e-01  1.0255627286088759e-01  -1.4929436019915485e-01  -1.6231616577734845e-01  -1.8778641912528440e-02  6.0578729299410339e-01  6.1218428979398798e-01  3.0589169696504465e-01  -7.0359393392437812e-04  -3.9416183485533836e-02  8.1904202589143341e-02  -3.1405530574686652e-01  3.8034386890971522e-02  -1.8278142405262154e+00  -7.7468857101899893e-02  -1.6361066213501712e+00  -6.1914265875671692e-01  -4.6679274850029179e-02  -5.7858425255395884e-01  -2.2969661200073427e-01  3.1885398878754817e-01  -2.6314106009291371e-01  -5.1470805845337719e-01  -3.9433236209691039e-02  -8.5292694855050866e-01  1.0334005533302765e-01  -9.3013208104471878e-01  -3.4252398118602717e-01  7.5959816490663223e-01  -1.1612341057442112e-02  -2.0238275148707182e-02  -2.6741233203712289e-01  2.4105778739009320e-01  -3.0177804712586848e-01  -3.0847091993490500e-01  -1.4608250319097202e-01  -1.2387634231439895e+00  -1.5514237760318389e-01  -2.5942154546830542e-03  -2.3545097587155815e-03  -3.8583672867819535e-01  -3.5683940075558018e-01  -1.3678386119573088e-01  -2.7152977031240300e-01  1.5137460930581911e-01  -4.8424088426588385e-01  -4.4327721311157725e-01  -3.5131351634975283e-01  -1.7789267610690335e-01  -5.6016731699488109e-01  3.5800605254797718e-01  1.8857180896493370e-01  1.5350532661258198e-01  -1.3858757360624671e-01  -9.3833372366775747e-01  3.6553401349330994e-01  4.1881115227740656e-01  9.0679073018897582e-01  7.0027917294750797e-03  1.1052438561043091e-03  -4.0070774282764049e-01  -1.4189183413025020e-02  -2.4245744146963222e-02  5.8869828955146031e-01  7.8313952954240165e-02  -2.8128979184880160e-01  2.2235235590078137e-01  1.5907453076727021e-01  9.4489223722182634e-03  9.3031457662425005e-03  3.6119246114985676e-01  4.0275548732237832e-03  6.2635465643665422e-01  1.5032411796465086e-03  3.2832407037830753e-02  8.0133703159961239e-02  -1.4731397594482772e-02  -8.2827331847598429e-01  4.9907706266336307e-03  1.1416153177877935e-02  8.9967883059788156e-03  3.4646034881119597e-01  -1.7935124020152815e-01  1.5396451867018202e-02  9.7425572192688086e-03  3.0270489408527270e-03  -1.9284152443189095e-02  -5.4867301745832542e-01  1.0045998268558314e-01  4.0210206352780248e-02  4.8922141662685409e-01  4.7503177231620536e-02  1.2515747835551608e-01  -2.7994955542483613e-01  3.1686493163184876e-01  2.1515313524407442e-02  1.5466145143768952e-03  1.3896242156877356e-02  6.7345450592880857e-02  1.6952570342129988e-02  5.3051035640526933e-01  1.9581531632204014e-02  -2.8010090590644549e-01  -6.1357188534782361e-03  1.1694392456205180e+00  -6.5436835528335680e-01  2.5409686781818902e-01  -4.3333221054462395e-01  2.8968073025327664e-02  -1.8459874170467713e-01  8.6607390462187928e-01  8.1300685059347477e-01  2.0182823221161922e-01  1.0393874229284868e-01  9.6464331974821273e-03  3.6975088557751717e-01  -5.7367099090373641e-01  -4.1026818391952571e-03  -3.8928405780921404e-03  8.0220311849617643e-01  1.2568716607680585e-02  8.0801278872482019e-01  -1.3200774252107672e+00  7.5027314977507864e-01  -3.2220896455459218e-02  -2.4577670427209022e-01  -4.9187820204482791e-01  -7.9450672204900735e-02  -1.0624316683267199e+00  1.8043564572150447e-01  -6.9975716751180639e-01  -9.7348694741035013e-01  -1.5008034628739231e+00  0.0000000000000000e+00  0.0000000000000000e+00  8.0525799702236900e-01  6.8085008965967542e-01  7.7786810033747800e-01  0.0000000000000000e+00  0.0000000000000000e+00  1.6142652473691919e-02  -5.5661121077036402e-01  -8.1485610715336682e-03  -1.3373563714196648e+00  -1.3160778182187030e+00  -2.6244951166043182e-02  6.0318630683581898e-01  -5.0713524736979587e-01  3.6097793318790006e-01  7.1108581226241342e-03  -6.9355561583823680e-02  2.3890112127700043e-02  -7.2193663929506591e-01  -4.4099317634205930e-02  -5.9258604291505729e-02  -3.1459914105465608e-01  -2.1520952033446208e+00  -5.6614546588961701e-02  -6.4393105420498431e-01  -1.2430651728349009e+00  -4.2763554443581098e-01  8.0395585575512052e-01  7.9907849950430143e-01  1.9514357466449073e-02  -9.0978909180422229e-02  -2.6956754333082481e-02  -3.4808501413183029e-01  2.1813369634587885e-02  -4.9302598046796564e-01  5.3926943714958694e-02  -1.2361311726468971e+00  1.1424987380290489e-02  4.2705596738378621e-02  2.8917006581096077e-01  2.7484080223360557e-01  -4.2759059514484377e-01  -2.8836497587900556e-01  -1.3102472946820169e+00  -2.9586393770249847e-01  -1.0080631662347714e+00  -1.7199337301425739e+00  -3.0845252347085544e-01  -1.2090040256973973e+00  -5.4162546049171434e-01  -4.9385750115409396e-02  -9.7654071587752841e-02  -3.2710318602860722e-01  -2.7827793134538453e-01  -5.7840357074437898e-01  -9.8712247178228196e-01  7.3084803013761027e-04  3.1810091244947468e-03  -3.5058690458326447e-01  8.4702759034298900e-02  -8.0045973406348592e-01  -4.4431409252873322e-01  -8.7649317278096620e-02  -1.2006200861459990e-01  -3.2588777563825409e-02  -2.7414146864562779e-02  -2.4667289159137715e-01  -4.5206605458066867e-01  3.7765435984855306e-01  -5.5655831251815058e-01  1.3947736428106333e-01  2.9353629279020982e-01  1.1034983514229429e-01  1.4799790464040741e-01  4.6633590776830741e-01  1.8357257903000762e-01  -7.7137560719264442e-01  -2.9782487997793183e-01  1.6576510804789286e-02  -1.3843233835953412e-02  2.5178736320173454e-02  5.8205658247386605e-01  3.6405439265817480e-01  3.8084087370362824e-01  -5.9818301313015954e-01  -7.6319888582897122e-01  -1.3715299525365723e-01  3.7333612726963333e-01  -2.6189317639935555e-01  -1.3999356367422555e-01  1.5987143297008582e-01  -1.7070022396304776e-01  -7.6714740005920296e-02  1.9760062773061782e-01  1.7332494747650803e-01  -6.9887111524291246e-01  -1.6970051344912994e-02  -2.3795455443834740e-01  3.7362771344879392e-01  -4.5588075754048447e-02  -5.0662773986928167e-01  5.2842430089361889e-02  -5.7720655370391075e-02  -3.3798243204737344e-02  3.7822193043153313e-01  -2.4931743914835521e-03  -9.0756572066700514e-02  -8.0984012131197033e-02  1.3816727474388993e-01  3.9338020895765474e-01  1.2215814020889607e-01  2.8389394546378582e-01  3.2608470319389754e-01  -1.0488638733007021e-02  -1.5512869758839632e-02  -3.7917128743403677e-01  -3.1204077680375714e-01  1.5282052785637021e-01  7.1390286658767855e-03  8.0111485450635933e-01  4.4794724809977485e-03  1.7789822350466025e-01  -3.2743819384068354e-02  1.7050423173383175e-01  -1.2329448765804059e-02  2.0833163323807991e-01  6.2375880193507305e-01  -4.4651981218262665e-01  1.1209057901187128e-02  1.3917928063967152e-02  1.3843922804086015e-02  4.0654552447292802e-03  1.3097192242293180e-03  -4.4414892586134624e-01  9.1429396957803184e-04  -3.1564700555763975e-01  -1.4054188622753955e-01  -7.7520081127323648e-01  5.1517429675418072e-02  -6.3938436996176318e-03  -7.2795210643038677e-01  -4.8010408067557070e-01  -1.0710984770346665e+00  -4.4674297153626963e-01  -4.9195150833089329e-01  8.5545005515592683e-03  -2.4802330077822121e-02  -2.9888480968807463e-02  9.9392366104737229e-02  2.2461624804422542e-01  2.9338984834011295e-01  1.2104052815663167e-01  1.3471925030974868e-01  7.4064810812534340e-02  2.2500569753568140e-02  -7.0608038980771914e-01  -5.1183169417594421e-01  2.9588042696864756e-03  1.1957211067815708e-02  -6.1867269392562574e-01  1.7217319912577651e-02  -2.1085825014497236e-01  1.9771309086909830e-01  2.2053445779957673e-01  -1.1156236878197974e-02  -8.8540178710662709e-01  3.0431972429120707e-01  1.3935340160953363e-01  -3.5630966895532901e-01  1.4553349878398679e-02  -8.3960754031860166e-02  -1.4219949914610902e-01  9.8443492026988252e-03  -4.0426675702180093e-01  8.0071091476782719e-01  1.7381699542921705e-01  2.8105259990813675e-01  -4.2513922881506511e-01  1.8076210931783715e-02  1.4330064465826258e-02  5.0617737969459392e-03  7.6017579611242592e-01  7.9151828147113168e-01  8.1476585235768373e-01  4.1069879690705094e-02  6.3310211761277366e-02  -4.6345390183338298e-01  8.3587839502644889e-01  7.3535319647733344e-01  7.0609569182963661e-01  3.5335190043618757e-02  -1.1915854325292526e-01  3.2504122101238259e-01  2.0161927890604972e-01  3.2804986747187546e-03  2.7752987391684424e-03  1.5964973245836265e-02  9.6798798729269575e-01  9.7223332624810421e-01  3.2970370712847435e-01  -5.5504887705403336e-02  -2.2723172028705671e-01  -4.4902060501910268e-01  -1.7911780266478528e+00  -6.9894438787658774e-05  -1.6589823493801381e-03  -3.3722275105477623e-01  1.5623778348938884e-02  1.4420555573677192e-02  3.0628258343645865e-03  6.0108750091586248e-02  -8.4135116713078195e-01  -2.1549304292685209e-01  1.3673993689068846e+00  2.4327411577836352e-02  1.8136359747508948e-02  -1.3168728948475730e-03  6.4146157098911749e-01  6.4042137469898186e-01  6.9783763472947136e-01  7.3309841182012548e-03  8.7317103449388294e-03  3.9626800580951672e-02  -1.3487768237669109e-01  6.1261354598167650e-01  -2.7723765772531583e-01  -9.5305609969820082e-01  1.7731193271354421e-02  -5.3153086394807964e-04  3.5775934786827137e-03  1.1354808043863837e-02  1.0432363068157562e+00  3.6329392147264000e-01  8.3404838794312752e-01  -1.8892914349253966e+00  -1.6329693465146822e+00  9.4810245595633880e-03  9.4987430288081140e-02  -4.1861318348178711e-01  2.5817903110667206e-01  2.3272907087604372e-01  8.0151834497408936e-01  7.2001935448468923e-01  -4.9737160009106687e-03  -5.2745362691815512e-01  -4.0815024158554919e-01  -6.1726539470299813e-04  -2.0433157675838428e-03  -9.2872079656155845e-03  7.6574209234802574e-03  2.9731959664468688e-03  -2.2089128271332931e-02  5.9918266238176099e-01  -1.3595225795427109e-02  -3.2252073470933638e-02  -5.3288384397172839e-01  -4.6220343131258966e-02  -3.6519025459926835e-01  -1.8864861565122792e-01  5.5806527724966859e-01  -4.6277599393859753e-01  9.8162497836884943e-01  1.0773179686707527e-02  1.6194076671958466e-02  8.4566937530127818e-03  2.1194126860656061e-02  9.6740206437070222e-02  -7.8721703218071468e-02  -1.1359806523045265e-02  -6.6039563347957487e-03  2.7796507498772235e-03  -7.6916068475668571e-03  2.3735148471262348e-03  8.6431055758085862e-01  8.0276888022557413e-01  8.0247241977544381e-01  5.1730092343462333e-02  -1.2286863584750525e-01  -4.0637873420396997e-01  5.8655363878518689e-03  6.0597469255770597e-01  1.7269194822599875e-02  8.0527962146739074e-01  5.8739210167071355e-03  1.3122369496388810e-02  2.1010746208954519e-03  4.1250615304820968e-03  6.1623114698273218e-01  4.3784617011346366e-01  2.8206578164577903e-02  -5.0463532282241308e-01  1.5095259725083908e-02  1.1334755400503747e-02  6.8001005408167879e-04  -2.4566852638156947e-03  5.9671061849206108e-01  1.5912677836458872e-01  9.3603073229049424e-03  7.0677256755311846e-01  1.1480841068534926e-02  8.9506573958802060e-01  1.1150380950042038e-02  -8.1347082211238231e-01  3.3911783382895383e-01  -4.3596647921363813e-01  -1.7824717932809562e+00  3.6092022703211357e-01  1.9628092261357522e-02  -5.3018559184583691e-01  -6.9039830845393957e-01  -6.5755946623547123e-01  3.2118575778419561e-01  -9.0925626849479316e-02  2.5218804334034678e-01  6.6645005862221052e-01  2.0845633153277790e-01  3.4914753063512449e-01  -7.4806418277571218e-01  3.4133711928654253e-01  -2.1515259497175948e-01  1.5799612507865095e-02  1.2650157460729095e-01  6.7655151326367500e-04  8.8951843703982576e-03  1.3168193190026245e-02  2.2729069019952371e-03  3.7702134049726360e-01  9.2937739803751099e-02  1.6768242626507604e-01  -3.3061286766183690e-01  -3.6438462896316338e-02  -2.4938974508961941e-02  -7.1931748185064381e-03  -4.0836103392019368e-04  -1.2865985471683964e-02  -2.4066811706970639e-02  -5.5233513250089482e-02  -2.0372191334970360e-01  -9.2131496093726084e-01  -1.9448955384712996e+00  -4.7926676053839423e-01  2.4795616203702917e-01  2.7030049367882636e-01  5.7276013924932572e-03  8.0948021727370467e-01  -1.8229820864850366e+00  -7.0468542632275019e-02  -1.5926452895055451e-01  -4.6113760742395377e-01  -6.3011864925399808e-01  5.6765597705681313e-02  -1.1887084451904766e-01  -1.5424643718586432e-03  -1.6119765092796223e-02  1.0555059492026908e-03  3.3249839803902564e-01  -4.3189892541671815e-01  -3.3278768395187908e-01  -6.0982726352632277e-01  -4.1842987828985634e-01  -1.0539098314555002e+00  -4.6623902719075588e-01  2.4225383385059218e-01  -9.3694384542704290e-01  -6.4571047013914773e-01  -3.2897548231434370e-01  -9.0193221707066851e-01  2.6960191007483224e-02  7.2381131810172084e-02  1.8216356302011218e-02  -6.7912199164212605e-01  7.0921253382258381e-02  -2.5738530083757583e-02  3.3927996224312050e-02  -1.6010565980951932e+00  -1.5309064902550595e+00  -1.5084365761296825e+00  -1.0679325089013092e+00  -1.8400770069220147e+00  -1.8786485595253863e+00  -4.5822433947890213e-02  -9.2202234769037966e-02  -3.1895214823558760e-01  3.9972941324287131e-01  -3.5861224648105655e-01  -3.7049067691378716e-02  -4.4723828903501926e-02  -5.1966579093649257e-01  -1.0006507385441796e+00  -6.9398535694107399e-01  -6.7478994582452467e-01  7.1976798035973691e-02  8.0394438187224693e-01  -1.1619776568019042e+00  1.4035037469745617e+00  -2.6287776648900496e-01  -3.6629706588117517e-01  -3.5256122823864811e-01  -6.9646368658351676e-01  -3.7971103847481341e-02  -1.2929194804402855e+00  1.3148197923552405e+00  -2.6037979610246376e-01  1.1300394825809124e+00  -1.3290440709034064e+00  -1.1227748936970285e+00  -1.6119372449430196e+00  -1.2632631097313012e+00  1.6587904519364685e+00  -4.3349382123131641e-01  4.1047832736882506e-01  -3.3204735273522484e-01  -2.6232037871438862e-01  -1.0354093679971128e+00  -1.4315396692404840e+00  -1.1515107883981694e-01  1.0295901625623378e+00  -3.7451180723313027e-01  -3.6752429340504478e-01  1.4882940478369153e+00  6.7290618610101871e-01  -9.8557353967173000e-01  -6.6445094589121778e-01  -8.9099465147053547e-01  -1.3377433773520737e+00  -1.0660406237294584e+00  -1.4684658931741166e+00  -1.4734448706662961e+00  -1.2347182546729292e+00  -1.4139071999389785e+00  -1.4652956594996418e+00  -1.3549867204984387e+00  -1.3353498354648041e+00  -1.3200349541943601e+00  -1.3003451372829002e+00  -1.2961097416666802e+00  -1.3217632624936755e+00  -1.3015116312836095e+00  -1.2875463470674271e+00  -1.3763749574853026e+00  -1.3216553476863178e+00  -1.3875550751614762e+00  -1.4653334637495212e+00  -1.4206222007982998e+00  -1.6164302817546574e+00  -1.4616239715234776e+00  -1.6337321667211988e+00  -1.8262283246013515e+00  -1.6950024056307327e+00  -1.9913062392783778e+00  -1.7523818305061072e+00  -2.0236651445579072e+00  -1.6535298143935162e+00  -1.8090207485146628e+00  -1.8671296373508559e+00  -1.593816818398837