<?xml version="1.0"?>
<VTKFile type="UnstructuredGrid"  version="0.1"  >
<UnstructuredGrid>
<Piece  NumberOfPoints="4269" NumberOfCells="8234">
<Points>
<DataArray  type="Float64"  NumberOfComponents="3"  format="ascii">0 1 0  0 0 0  7.5 0 0  7.5 1 0  1.197537668119028 0.5812868930080463 0  1.2 0.55 0  1.197537668119028 0.5187131069919538 0  1.190211303259031 0.4881966011250105 0  1.178201304837674 0.4592019000520907 0  1.161803398874989 0.4324429495415054 0  1.141421356237309 0.4085786437626905 0  1.117557050458495 0.3881966011250105 0  1.090798099947909 0.3717986951623264 0  1.06180339887499 0.3597886967409693 0  1.031286893008046 0.3524623318809725 0  1 0.35 0  0.9687131069919538 0.3524623318809725 0  0.9381966011250105 0.3597886967409694 0  0.9092019000520906 0.3717986951623264 0  0.8824429495415054 0.3881966011250105 0  0.8585786437626904 0.4085786437626905 0  0.8381966011250105 0.4324429495415054 0  0.8217986951623264 0.4592019000520907 0  0.8097886967409692 0.4881966011250107 0  0.8024623318809725 0.5187131069919539 0  0.8 0.55 0  0.8024623318809725 0.5812868930080463 0  0.8097886967409693 0.6118033988749896 0  0.8217986951623264 0.6407980999479095 0  0.8381966011250105 0.6675570504584947 0  0.8585786437626906 0.6914213562373096 0  0.8824429495415054 0.7118033988749896 0  0.9092019000520907 0.7282013048376736 0  0.9381966011250106 0.7402113032590307 0  0.9687131069919539 0.7475376681190276 0  1 0.75 0  1.031286893008046 0.7475376681190276 0  1.06180339887499 0.7402113032590307 0  1.090798099947909 0.7282013048376736 0  1.117557050458495 0.7118033988749896 0  1.141421356237309 0.6914213562373095 0  1.161803398874989 0.6675570504584947 0  1.178201304837674 0.6407980999479094 0  1.190211303259031 0.6118033988749896 0  3.75 0 0  3.75 1 0  1.875 0 0  1.875 1 0  0.9375 0 0  0.9375 1 0  1.40625 1 0  5.625 1 0  5.625 0 0  2.8125 1 0  2.8125 0 0  4.6875 0 0  4.6875 1 0  6.5625 0 0  6.5625 1 0  5.15625 0.5 0  4.21875 0.5 0  2.34375 0.5 0  3.28125 0.5 0  6.09375 0.5 0  7.5 0.5 0  6.897916666666666 0.5 0  1.842708333333333 0.5 0  0 0.5 0  0.46875 0 0  5.625 0.5302734375 0  7.03125 0 0  6.09375 1 0  2.8125 0.4697265625 0  3.28125 0 0  2.34375 1 0  2.34375 0 0  3.75 0.4697265625 0  4.21875 0 0  4.21875 1 0  4.6875 0.5302734375 0  3.28125 1 0  5.15625 0 0  6.09375 0 0  5.15625 1 0  0.46875 1 0  1.40625 0 0  7.03125 1 0  0.3954638734376499 0.5975780249976004 0  6.495833333333334 0.4072265624999998 0  5.859375 0.25 0  4.905729166666666 0.26513671875 0  4.453125 0.25 0  3.531770833333333 0.73486328125 0  3.968229166666667 0.73486328125 0  2.594270833333333 0.73486328125 0  3.030729166666667 0.73486328125 0  6.328125 0.75 0  7.198958333333334 0.3125000000000002 0  7.198958333333334 0.6874999999999998 0  5.390625 0.25 0  0 0.25 0  2.109375 0.75 0  2.109375 0.25 0  1.51921323205749 0.3418883887525936 0  1.522346610178253 0.6811769608297746 0  5.375456746419271 0.75 0  4.921875 0.76513671875 0  4.437956746419271 0.75 0  3.984375 0.23486328125 0  3.500456746419271 0.25 0  2.578125 0.23486328125 0  3.046875 0.23486328125 0  5.874543253580729 0.75 0  6.642123189445656 0.6909095493086836 0  6.746354166666666 0.2391688368055553 0  0.3197109619185111 0.2850049285972083 0  6.328125 0 0  0.6313375889370429 0.2351325552547357 0  0 0.75 0  6.252283381534729 0.2693808819694041 0  0.234375 1 0  6.948437500000001 0.7543055555555555 0  0.5934018769555939 0.7694151657947577 0  1.858854166666667 0.75 0  1.858854166666667 0.25 0  1.640625 0 0  2.093229166666667 0.5 0  7.5 0.25 0  3.282227579752604 0.75 0  7.5 0.75 0  1.171875 0 0  1.303539853147731 0.2235426933121065 0  5.148177083333333 0.2575683593749998 0  2.351822916666667 0.742431640625 0  1.640625 1 0  4.202380413457425 0.7645435094236485 0  3.047822985053062 0.4701848030090332 0  2.577177014946938 0.4701848030090332 0  4.672792740482199 0.76513671875 0  4.922822985053062 0.5298151969909668 0  5.390593497949761 0.5156244924311331 0  5.610292740482199 0.76513671875 0  3.516602579752604 0.5 0  4.45496853898097 0.4865915990446593 0  5.85753146101903 0.4865915990446593 0  3.749511210123698 0.23486328125 0  3.983397420247396 0.4999999999999999 0  2.343497975411212 0.2346270081980111 0  4.219002024588788 0.2346270081980111 0  0.703125 0 0  2.8125 0.2343755075688669 0  3.046875 0 0  2.578125 0 0  3.515625 0 0  3.984375 0 0  4.453125 1 0  5.390625 1 0  2.109375 0 0  2.109375 1 0  5.625 0.2921402030705575 0  5.390625 0 0  7.265625 0 0  6.796875 0 0  6.328125 1 0  3.046875 1 0  2.578125 1 0  3.984375 1 0  3.515625 1 0  4.453125 0 0  4.921875 0 0  5.859375 0 0  0.703125 1 0  1.171875 1 0  7.265625 1 0  4.921875 1 0  5.859375 1 0  0.234375 0 0  6.796875 1 0  6.980310975276531 0.2285890127127066 0  5.149170481934885 0.772689292163473 0  3.274170481934884 0.2273107078365268 0  6.101334126790364 0.7722468376159667 0  4.678005340872584 0.3000799877067239 0  2.8125 0.6921051326382495 0  3.75 0.6921051326382495 0  0.3515624999999999 0.8134571721668546 0  0.4990405774417521 0.4070099317153735 0  0.1789273931360182 0.625 0  6.31239060814315 0.5298877111157968 0  6.456979773992304 0.1917956348713352 0  6.699870808919271 0.4406293402777773 0  1.337539480965883 0.7944303676599538 0  6.058675797563041 0.2019812164653516 0  0.8203125 0.1643029084422534 0  0.1480856513011711 0.375 0  1.090769294689562 0.1719186776982972 0  7.291088163206459 0.5 0  7.094502414936563 0.5197902199074071 0  0.6046212059042245 0.5730066483871106 0  1.707231580809486 0.6342709161352207 0  1.685961352504593 0.8193269193390785 0  1.374721602852827 0.4600373025865813 0  6.486415510043844 0.5916440776477192 0  1.5234375 0.1508863828685116 0  1.707925830421689 0.3657739208189008 0  0.1674513225045584 0.8278776664019765 0  7.138268756771176 0.1438183366439137 0  7.1484375 0.8616388888888887 0  7.328562530764119 0.819498462930605 0  4.101073710123698 0.3678637200736647 0  1.693878467219965 0.1911955120941053 0  1.577566745468488 0.5110082404081502 0  6.6796875 0.8653871806883484 0  6.498039504430512 0.825568433346395 0  0.7562556668576472 0.8333197949571929 0  4.101045914668806 0.6255195807449272 0  5.030745188395182 0.382829047309028 0  2.476364945868651 0.6095868094762166 0  2.729359843907322 0.8460525663191247 0  2.9296875 0.8740763101564099 0  3.163518307559356 0.6254622797994247 0  3.666859843907322 0.8460525663191247 0  3.8671875 0.8740763101564099 0  4.8046875 0.12592368984359 0  3.14936031382311 0.8606990583876851 0  2.4609375 0.8747622921397776 0  5.023140791101972 0.1392266772452574 0  0 0.125 0  0.1759922923594607 0.1727589856739889 0  4.5703125 0.125 0  7.327755777818006 0.1766156770456191 0  5.5078125 0.125 0  5.719712725029036 0.1460701015352787 0  4.327848962028002 0.3674169956512513 0  5.982681121544351 0.3692637923021713 0  3.398926289876302 0.6245417594909667 0  5.281756792511996 0.3827993367299961 0  2.226822645963271 0.6252438868405666 0  2.234390064317166 0.8676616584526566 0  5.2734375 0.125 0  1.96796875 0.382568359375 0  2.234651037971999 0.3674169956512511 0  1.984114583333333 0.132568359375 0  1.9921875 0.875 0  1.984114583333333 0.632568359375 0  5.748733794462357 0.8678269127183313 0  3.3984375 0.875456329184688 0  1.512925924995415 0.8582958012121853 0  1.359299372802969 0.6275861864990343 0  4.810521420483513 0.4041767793635395 0  0.2996213306116602 0.455339710363317 0  5.999933717403708 0.6388425470751088 0  5.250033449003657 0.6388713364551682 0  3.631676045992918 0.3525406652400928 0  4.3359375 0.8816499670325881 0  4.343577437052484 0.6116511299909198 0  3.375033449003656 0.3611286635448316 0  5.763152151652243 0.6249404690537395 0  4.549347848347757 0.6249404690537396 0  5.5004588702411 0.6403667365776566 0  5.976118394847484 0.8816230218343086 0  5.054722486865804 0.6338007028640954 0  3.164542163493752 0.3520519332736524 0  2.445407482032355 0.3672168403687257 0  4.8046875 0.882568359375 0  4.1015625 0.117431640625 0  2.4609375 0.117431640625 0  2.695556894938151 0.3520510350344335 0  2.929443105061849 0.3520510350344335 0  3.881979231817319 0.3670559016511187 0  3.8671875 0.117431640625 0  4.805389247695744 0.6470047893641744 0  3.399370721942191 0.1184066543556767 0  5.274370721942192 0.881593345644323 0  3.618253274934649 0.1316869186284249 0  2.6953125 0.1171877537844335 0  2.9296875 0.1171877537844335 0  2.21873344389451 0.125 0  4.3359375 0.1171877625080073 0  0.6659898565672709 0.3986593551313873 0  7.363359022954956 0.3481046411219251 0  7.363359022954956 0.6518953588780749 0  5.487719392831826 0.3828237631077121 0  2.695054578344725 0.5809158475691247 0  2.944553877887707 0.5964065668438148 0  0.3515625 0.1201898858097106 0  5.5078125 1 0  4.5703125 1 0  5.031746201297604 0.882568359375 0  3.1640625 0 0  6.2109375 1 0  6.186845385763124 0.6336356480571081 0  4.1015625 1 0  6.810399074069772 0.6495574751396682 0  0.4740615253480797 0.2509287743856873 0  7.052064303830151 0.3684417917792242 0  6.195177069665382 0.1216488332168849 0  5.72300154718324 0.4112068202852788 0  3.879157465495092 0.6111892850691246 0  3.645760045247695 0.5809158475691247 0  6.868257400485771 0.3427840810237202 0  6.612030892260864 0.1521752713064389 0  6.615666885941117 0.3151079644097221 0  4.04296875 0.8633718902669071 0  1.183031453639096 0.8486801864185936 0  6.9140625 0 0  6.859079526500421 0.1398292786950638 0  6.808232443325651 0.7957411753922057 0  6.9140625 1 0  4.544955211100143 0.3675874343205077 0  1.0546875 1 0  6.122060236165557 0.3316791557072867 0  0.5859375 0 0  5.9765625 0 0  5.44921875 0.870984788733638 0  4.51171875 0.870984788733638 0  0.7608354256382215 0.2931261274224557 0  6.386875332239937 0.3156583003094978 0  6.985654756850997 0.6147408423643147 0  6.223797257919172 0.8535621912121121 0  5.936822413218736 0.1338376546337823 0  6.23933008800134 0.4095573603773768 0  0.5414022462152697 0.1305482677949959 0  6.331360438104348 0.1370086318183389 0  0.956404929269873 0.1374266563647954 0  1.2890625 1 0  0.691305981127761 0.6764829884281737 0  3.531251607241209 0.8678916320952239 0  2.59787442813022 
[...]
<PointData  Scalars="f_71633"> 
<DataArray  type="Float64"  Name="f_71633"  format="ascii">7.3105343318115701e-01  7.9008810398195384e-01  0.0000000000000000e+00  0.0000000000000000e+00  -1.5858264667361952e+00  -1.3125095338075190e+00  -8.9898068703816625e-01  -5.6223231072881641e-01  -3.7272084379088560e-01  -2.6224408901599522e-01  -1.6393427778472772e-01  -1.5038788970741640e-01  -1.6554729475558505e-01  -2.0001550733741433e-01  -2.8978371580050427e-01  -4.4329388845640710e-01  -5.9884271382900223e-01  -6.7067303460950700e-01  -5.4396861828116483e-01  -2.4727345644318877e-01  2.0811981567126508e-01  7.3065499076006279e-01  1.2236828997910225e+00  1.6401734660073493e+00  1.8759516130836191e+00  1.8918511848640560e+00  1.6703592628305672e+00  1.2490762156659629e+00  6.5627229506210316e-01  2.9045403325501630e-02  -6.3408999999163962e-01  -1.2578872560310910e+00  -1.7347285211534833e+00  -2.0543975787041386e+00  -2.2150569129591737e+00  -2.1543936853619372e+00  -2.0133480298961168e+00  -1.8642342846758557e+00  -1.7571477192328544e+00  -1.6913595481693013e+00  -1.6536929184087588e+00  -1.6327161989981380e+00  -1.6315239317945300e+00  -1.6456885389822189e+00  1.4894748430037175e-01  -5.6358212809693320e-01  -4.0406738385267699e-01  3.1532482883115931e-01  5.0653620360269791e-01  -3.6799406503969323e-01  -5.7945326846213940e-01  1.9004586408827462e-01  -5.3208540917672888e-02  -2.8319826325300490e-01  5.7663815382971029e-01  -1.8150710514042573e-02  2.4478605445121998e-01  3.5570285005192138e-02  4.0046081892647347e-03  -1.0446967609571658e+00  -2.0867826539218942e-01  -2.1352695231333932e-01  -3.6608378483856968e-01  -2.3504167795153741e-01  0.0000000000000000e+00  2.4623562880617934e-02  -3.7977026285698245e-01  7.9621684436176121e-01  8.0217910161060568e-01  -1.8622727226541850e-02  -2.4584595414154330e-04  1.7391895951614070e-02  -9.6181243416891771e-01  -1.8122450438869328e-01  2.5956558043606381e-01  -3.6189844331178433e-01  -8.1311424546689270e-01  -9.2954835869111907e-02  1.9051917017012887e-01  -2.0009388537394990e-01  5.3919954563632111e-01  1.9031259636478667e-01  -1.2274399943766058e-02  -1.6363538675285846e-01  6.5785849699128784e-01  -2.2879280637709786e-02  -9.9447184449933338e-03  8.7496678805044381e-01  1.0201232104861978e-02  -1.4650182816393775e-01  -5.1247067751503075e-02  -6.6499189059497055e-01  -1.5680433006087971e-01  -1.0973156675842943e+00  -9.8795890102211725e-01  -5.1000104002814017e-02  -3.4152543394427616e-02  6.5055207251957306e-03  6.5579268670668484e-03  -1.6240704502180212e-02  7.9346374114957052e-01  2.4893872435745318e-01  -2.8048783472942651e-01  -1.2379723235185953e+00  -6.1355407585139921e-01  1.5662711918363306e-01  -3.8018053243375050e-01  2.7999028928213709e-01  -3.4291208637814166e-02  2.0347116732626094e-02  8.4611075577551903e-02  -1.5665639766814002e-01  4.3557847062164062e-02  1.2069460658428982e-03  1.9304855163694283e-02  8.2071958926065480e-01  8.9391778150361215e-02  8.5584265869721021e-01  7.4982582725760838e-01  1.4699241035336966e-01  7.2186893642749128e-01  7.3819574622659033e-03  7.2900662827838847e-01  2.6910305938271040e-01  -3.4422983333277296e-01  -1.5031893341968039e-01  -3.3788296685186535e-02  0.0000000000000000e+00  2.7520874428891828e-01  0.0000000000000000e+00  1.7891387214719306e-01  -5.5064651755795654e-02  -2.0122675783669725e-01  2.1436003738781831e-01  -1.9765416229045094e-01  5.0903544552155504e-02  -3.8576484278841705e-01  -8.2359197844533460e-01  2.2255165656335951e-01  -7.5665330949661147e-01  -1.9555894934406581e-01  1.3598307046936800e-01  -3.2225592758904892e-01  -2.1653396942429179e-01  -1.6302186475943906e-01  8.6105380140277715e-02  -8.7522120388190050e-01  -1.2796201086679666e+00  -1.3369474354222380e-01  7.8033409597012382e-01  2.2397075788042914e-01  3.1381847885258213e-01  7.5251797738630588e-01  2.3957360251381229e-01  3.7873860082810198e-02  2.5569253540290587e-01  2.1391901584398096e-01  -3.3251806329616568e-01  3.4923641727460619e-01  -3.6284132643162305e-02  4.7160889839665009e-02  8.3435441144431941e-03  6.8164347951215915e-04  -1.7862339368628452e-02  5.9885505210766754e-01  -8.4137938577786994e-02  -2.4634703871844976e-01  3.2781559295766044e-01  -4.2346710914254859e-01  4.2989076986203162e-01  -8.5964981335325472e-02  4.2376235234170467e-01  -8.4781134764446309e-01  -6.9960571676342155e-03  -1.0619704158677581e-01  8.8795116372458016e-02  7.9053721802776244e-01  2.9560354579550890e-02  6.5529319547540021e-03  -5.4510109854405919e-01  -4.3204308490072130e-01  1.0765610677299618e-02  -3.9234871564819779e-01  -1.5640577906097508e+00  -1.7050045636631703e+00  7.2622104345958050e-01  9.8369144535677244e-01  7.8886990039815863e-01  -8.8564439996753827e-02  6.0423277861458020e-02  2.1792811589748117e-02  -1.2482490273199982e+00  -1.1296011390141995e-01  6.4070940775746221e-01  8.0460495106134056e-01  1.7831544348654996e-01  2.6514305883755078e-03  1.5581519850528922e-02  1.1810789794465750e+00  -7.2935357478172680e-01  6.4886582497367049e-02  -1.0595377537803885e+00  -2.2034006164087822e-02  -1.8753397014549331e-01  -9.8117915682457757e-01  7.3808351949232154e-01  3.2186105092845736e-04  -4.6425132779028206e-03  -4.4661509236631732e-03  -1.1912850524110929e-01  -3.6187961531977758e-01  -1.2412287261087231e+00  8.4751295765151911e-03  -1.0977805505265380e-02  3.0797699901585540e-01  -3.8759820773989212e-01  -6.4601136267957193e-01  -2.9699416939620848e-01  -1.1137287107688525e+00  2.3786843120240141e-03  -1.9046431071182737e-01  -3.6198031184804957e-01  -8.0356575403100927e-01  2.2786916359145684e-01  5.9522271138494964e-01  1.4372658280832226e-01  3.5306414455464896e-01  7.9026254811615504e-01  7.9082946273460397e-01  -5.0125856018628501e-01  -3.7233285945726225e-05  8.3566273406328025e-04  -6.5062590592713146e-02  -3.1749852458352323e-01  -4.3946282139378740e-01  -6.6881670759421724e-02  -3.8631480698419068e-01  9.2666083570069585e-02  2.9780029414972814e-01  1.2200459126257480e-01  -1.8229071543572131e-01  -6.8536128480831615e-01  -3.2441250261793103e-01  3.7558556511053254e-01  1.9236187088694492e-01  1.2210224032227021e-01  4.5589320845109216e-01  -4.4374757545961652e-01  -2.2920958004299727e+00  -3.1839432640021059e-01  8.4859252860983025e-01  -2.2805142645566930e-02  -6.8504715207132161e-01  -7.7950958577026802e-02  3.1596271984862312e-01  6.6660585065243208e-02  -2.5669755320438142e-01  2.8744508172144780e-02  9.9886785115635215e-02  8.5070763870569555e-02  3.4812710193073929e-02  -1.0903913911437086e+00  -4.3436883821875222e-01  -1.0128317367601396e+00  1.2505373156338942e-01  -7.2556035930382507e-04  -1.9714970076445716e-02  -4.2942710837258474e-01  -2.3749848695338441e-01  -3.6190034105832608e-01  1.9303142230618464e-01  -2.6665996179825791e-01  2.1618832999002077e-02  -2.5277789441050989e-02  2.2759928756241568e-01  7.2100062090456263e-01  4.4495225654150999e-01  -4.5329195261763455e-01  -2.6379467583672539e-01  1.1688538280543663e+00  6.4164445288944563e-03  2.7811805755943017e-03  -5.4560022244420324e-02  -1.8388722151772974e+00  -7.2038670954370876e-01  7.9294577143710165e-01  1.4659892881066897e-01  2.9603632894513099e-01  -3.2619505004141408e-01  -2.4285143041541982e-01  -1.3416453553772153e-02  -3.3051066526666131e-02  6.0414742408199607e-02  8.9360818518417554e-03  8.4491399215538177e-01  4.9774324950204079e-03  8.9855961434801679e-02  -1.0142423782990338e-01  -1.6218498237882932e+00  -9.4173845838854886e-01  2.4780853948406828e-04  2.7254916400219167e-02  2.5189040106915641e-03  -1.6267186460707986e-01  -1.1936633760199313e+00  2.1666432596943321e-02  1.0431001671751663e-02  -5.0278653231602488e-03  -1.9253005961695047e-02  -4.6915417809779231e-01  -8.0093686429910482e-01  -3.0401988296557142e-01  8.0327740731613928e-01  -9.0147269446524861e-02  1.5998109269264341e-01  2.9880202566547120e-01  7.9635936282513009e-01  4.3125551992209014e-02  1.0053385367582294e-03  -2.5482943429669284e-02  -1.1218974508276462e-01  -3.9247188893959589e-02  8.0763270857681291e-01  8.6962172067576962e-02  4.2947275507934402e-01  -7.8449511273619132e-01  1.0017031871397313e+00  2.4043522720258639e-01  -3.0904978051577309e-01  -1.3007694477986660e+00  -4.0808318022922119e-01  -5.8650373603826078e-01  7.9301845474205535e-01  6.7062002920727803e-01  9.5576441475262772e-02  2.2457923846022410e-01  -9.7575603234767889e-03  -3.6145258689645227e-01  1.2326179165908606e-01  -4.0079474880814567e-03  -5.6085749783624933e-03  5.7168621621478000e-01  -9.6421004791118503e-01  7.6309770322034132e-01  5.3338524871668055e-02  8.1141205020023888e-01  2.7619759167908636e-01  -1.5787462037063735e-01  3.2074641314723033e-02  -2.2571074657545950e-01  -4.0939520972855237e-01  -2.3969382943087914e-01  -1.9344491014488020e-02  -9.1942193589774110e-02  2.9699217191384836e-01  0.0000000000000000e+00  0.0000000000000000e+00  7.3380659304085172e-01  7.9891312604498799e-01  7.7526415868642684e-01  0.0000000000000000e+00  0.0000000000000000e+00  -1.3470417373836256e-02  5.2648721205864513e-01  -7.7214750813974229e-03  -1.7223254237979693e+00  -5.3938596869649524e-01  -2.6918689954293619e-02  7.8946679795265828e-01  -5.9308691204582251e-02  7.7428040754750982e-01  1.8856229561372451e-02  8.2609482844209700e-02  -8.4880322544591255e-02  1.4269252661096701e-01  6.0827591939020542e-02  -6.5084349741589698e-01  2.8397170404298772e-01  6.0950344430620342e-02  6.4327282955950249e-02  -2.1565826251491692e-02  2.5965401383449094e-01  3.4601100095433185e-01  7.2981607875635279e-01  5.3034747200763044e-01  -9.9494942167236172e-02  -4.7679325725545882e-02  -5.2130427016916725e-02  -3.4320783374325481e-02  -2.4236399774424894e-01  -2.7131486021161211e-01  -1.9467256090827975e-01  -1.6455506437338410e-01  -5.3094015057415442e-04  1.8660254509159091e-01  1.5436687659867240e-01  -3.2177640219112602e-01  2.2267137093952330e-01  -5.3796728888235662e-03  -1.8051338385808147e-01  -1.0464844434438767e+00  -2.5785040936342446e-01  -2.6006048470989257e-01  -4.9347592430657533e-01  -5.0617158958638220e-01  -3.1022843900706853e-01  -1.0825655449572575e+00  -6.6886329105815390e-01  -4.9352423310710108e-01  -6.2071250489742780e-01  -3.6220102975097318e-01  1.2146410437740347e-02  1.4212384321313989e-02  1.5707331825024359e-01  2.8230323641419308e-01  1.2747783078032207e-01  2.0086879876508132e-01  -3.0897988752273903e-01  -5.9124944224168985e-01  -2.7695334030691104e-01  -9.4024294675925713e-02  1.9832439359266985e-01  1.0438063278425390e-01  -5.8887635567716451e-02  -3.1380225135075468e-01  -5.0148149617568735e-02  -8.7504058320848566e-01  -5.9356980449223118e-01  -7.2845259407076968e-01  -3.6284266442928514e-01  -5.1867838345727790e-01  -1.7148246639194392e-01  1.9017180819781038e-01  1.9207637904529248e-01  7.5707070274016186e-01  -7.7032604896106194e-02  8.5912951501076126e-02  7.9161360079846288e-01  -2.5102161160064007e-01  -4.0528260862818721e-01  5.6003399620469796e-01  4.6015771891829987e-01  7.4723561447669751e-01  1.0461277650641611e-01  8.8048649878143828e-02  2.3813366087640833e-01  2.2824139857797954e-01  1.9373184899923318e-02  1.1649619307111041e-01  3.2617600529870333e-01  3.3018367879788363e-01  4.6564604011777111e-01  1.2874520045536295e-01  3.8269258423543567e-01  -3.2806706330856700e-01  1.5432134624254759e-01  3.0854285366621020e-01  -5.9135248393713931e-02  4.8030906712884701e-02  1.0466060688839004e-02  -3.2182761677635902e-01  4.9027446168368688e-01  1.4800028614281127e-01  6.3652260354446288e-01  4.2965363442954863e-01  -5.1782573905006168e-01  5.4108125152622442e-02  2.1645715987833047e-01  -5.2029296189799834e-01  -1.4331454426857987e-02  -1.3732105901153377e-02  1.4753238202194117e-02  3.8622560152508001e-01  6.9026070414661356e-01  6.3933541588066856e-02  6.9657830670685605e-01  5.0289067015032302e-03  6.1137693629173311e-02  -2.6572071013720688e-01  -4.5999209930960178e-01  3.5586927048647410e-02  -2.4351306780642940e-01  6.4167045543427212e-02  1.5519022595985454e-01  3.4756281961391571e-02  -6.2429534495368304e-03  2.4932571730668213e-03  6.7087122323299430e-03  2.3822280353021433e-03  -3.7441085747655717e-01  -5.2813303752457649e-03  -6.1648830403878441e-01  -1.5474459638085139e-01  -3.1361457348189770e-01  -5.5103867205801771e-01  -6.7531460645157962e-03  2.1294912455123868e-01  -1.0439282065127533e+00  -6.6083056870729295e-02  -4.6434741609906488e-01  2.9308118496903540e-01  1.5048475692020108e-02  2.9461862313959607e-02  8.7797613999467838e-02  -6.3807748356694260e-01  -2.1915729190971001e-01  -3.7550908181271098e-01  -1.4154502138976288e-01  -1.7847958444102158e-01  -1.6589759834123360e-01  -5.7439657988347353e-02  -2.5842120217253395e-01  2.5942506808475668e-01  6.9106829498536998e-04  -2.7467550876511319e-02  -4.0863219014624802e-01  -7.1566491668820465e-03  -1.4141160769505410e+00  -1.6794474014798715e+00  -6.7419892669035653e-01  -1.4735290964366652e+00  -6.4393156206291935e-01  -1.9449120829367725e+00  -1.1624590804819455e+00  -1.7076213640736175e+00  1.9205549670757244e-01  -6.4336563800972191e-01  -3.0861769371380549e-01  -8.2798593453867253e-02  -1.1428374432312489e+00  7.2071423092976639e-01  3.2899087156347812e-01  1.5037599378109753e-01  -4.1556591095694573e-01  2.9740697600415356e-02  6.4012126043689055e-02  4.6172955513531255e-01  7.8997025748209515e-01  7.6534311577211278e-01  8.1381608028500985e-01  -7.0059758615453355e-02  -9.2178748952570222e-02  -4.9123440983865724e-01  9.1758537631803760e-01  8.6923129487098139e-01  9.4212289370699687e-01  -6.7474209703163834e-01  -8.9622251753372928e-01  -8.8029473137832392e-01  -1.2374601751973842e+00  -3.4034269025500420e-02  -1.1524962309421195e-01  -5.0593567227690740e-02  1.0431376775922121e+00  9.5129069491831331e-01  -5.0204397159395830e-01  -8.8844490695455813e-01  -1.3639181486412901e+00  -3.3609279036014716e-01  -1.3233587550108559e+00  1.2302327799117707e-03  2.4078162023844674e-03  -6.3081443459007336e-01  9.0278998562622250e-03  3.2855240252767981e-02  -1.4370827146397203e-02  -7.3835691948112792e-02  9.3534583605752133e-02  -9.9078063804322630e-02  1.5026797219896817e+00  3.1348052696151034e-02  -2.2630177365919291e-01  -5.2934568918057033e-03  7.9752654930937861e-01  8.0110269691783731e-01  8.2622149200392392e-01  9.6300967735561890e-03  1.0330721134267013e-02  -1.5789312356499027e-01  -2.0243864100284004e-01  7.9490345620743530e-01  -1.6958514869978419e-01  2.5614003326142214e-02  -3.3327312969946274e-02  4.3508550322266118e-03  -8.7992904407612378e-03  -9.7158623028928814e-03  9.5448806450494528e-01  -6.1833888516666891e-01  7.9030081371056393e-01  -1.5933331091183207e+00  -3.9869126403114408e-01  7.8354965661122100e-03  -9.2777478386005352e-01  -1.4636347095989128e+00  -4.8752268157722385e-02  -3.0218544120105534e-01  6.8745314300294158e-01  8.0160823848584595e-01  6.0445946508540249e-01  2.6910964343959215e-01  -3.1753025429024190e-01  -1.3226399818730419e-03  -2.0279969025762670e-03  -1.2078976374836303e-02  1.1997363800044637e-02  -1.7932661865942407e-03  -9.3263490970965235e-01  7.8851678076147802e-01  -1.1367705781274209e-02  1.6623911249967194e-01  -8.4457639760576397e-01  -6.9717383361058760e-01  -1.2203578100361165e+00  -4.8941751455371224e-01  7.9928954491698523e-01  2.5242119070544972e-01  1.1349890903098774e+00  4.5321632553159401e-02  -1.2345343963336322e-01  -5.8652384506590305e-05  -5.4936159795142797e-02  1.6501794883875745e-01  -1.4092187318547212e-02  -1.2016698348063749e-02  -4.0753318356196505e-03  4.8628357548256380e-03  -7.4880716588988008e-03  1.3829733480413362e-03  4.7126467592525745e-01  7.2743275320600032e-01  7.4045136506784492e-01  -3.5299070406399868e-01  3.4062024971100929e-01  -2.0920848738452146e-03  -2.4018175554764380e-02  7.9016076467959373e-01  -5.6874638521851352e-03  7.3181209801927360e-01  4.2543626996692958e-03  -1.4498779925012832e-02  1.9020632608992480e-03  3.8977649800927693e-03  7.9171875887362220e-01  -2.1379971060154956e-01  8.7234969233952561e-02  6.2764734980088957e-02  -1.3130831549682550e-02  6.4018744394368906e-03  1.6379915914881639e-03  -2.7607663986317786e-03  8.0769256840287529e-01  -4.5387183143941090e-01  3.5397708731356847e-03  2.6520695241011011e-01  4.2326710692768381e-02  6.2620917313133995e-01  5.7119632124292691e-02  -8.8595509080059498e-01  2.3652982458764280e-01  -1.8757666922346622e-01  3.8084193605743187e-02  7.8775386015664051e-01  1.2451422103985761e-02  -3.3222726278842896e-01  -7.4775782258069759e-02  -3.3227979820126197e-01  -6.8742629018418722e-01  2.5400776588911339e-01  7.3470100328324950e-01  1.0847614087679489e+00  1.0258145166445469e-01  -1.4320352494138553e+00  -3.5953519374450499e-01  -1.5511393708780203e+00  -1.0703165587570243e+00  7.0617889411962606e-02  -1.0199756828461663e-01  4.0050670792063873e-03  8.9243132205690297e-03  3.4605340562352664e-03  7.8614071261140610e-03  -4.6135557706037184e-01  6.5329232199805565e-01  -4.0435562451989171e-01  2.5103690832114117e-01  8.4206750068899008e-02  1.0861064194935885e-01  -4.7273099066631255e-02  9.9963505008265015e-05  2.8835602081920708e-01  7.1236512718849523e-02  -1.9661780233998430e-01  3.1065354020070390e-01  -3.0532143730200367e-01  -1.8683625412725721e-01  -7.1732736042423173e-01  4.3247732333204086e-01  -1.0219524133667021e-01  1.9112828123803016e-01  8.5056444971086742e-01  -2.0994295069346802e-02  -7.3059616922915938e-01  -2.8095810865423615e-01  -1.9352301505252478e-01  -6.0590893772889698e-01  -4.3957869126924437e-01  -4.9327005256185086e-01  -1.0338326040315646e+00  -3.2314889734781449e-01  -4.4623271467531489e-01  -2.7207117713734214e-01  2.3204886360182309e-01  2.4880248139213149e-01  9.3299405191819854e-02  -1.0767096978090755e-01  -1.8717696582214788e-01  -2.5011865746800310e-01  -4.0309824568474656e-01  2.6829476671071484e-01  3.1015694740775496e-01  -1.8726377068238749e+00  4.7815371541948303e-03  -3.8657640764485340e-01  -3.4485299677195907e-01  -3.8149328982286018e-01  1.9911873604780161e-01  5.1140761975259685e-02  3.8722378693385640e-01  -2.4134028583806580e-01  -2.3596808057628751e-01  9.2357434875067937e-02  -2.5143892402900714e-01  1.7053951195923614e-01  -1.4438978980913814e-03  1.9465701030929811e-01  7.9404262571879367e-02  -3.4704208793476965e-02  3.6776177500956159e-01  -4.3682708360267303e-01  3.3270696143766831e-01  2.0771910219698442e-01  -2.2673424323096250e-01  4.7125616189488240e-01  4.3377709887004851e-01  4.1844357494493251e-01  4.9946279206229860e-01  1.9901127039365193e-01  6.0418731390500602e-01  3.3537872942998076e-01  1.3806265214012048e+00  -1.4501118737790331e+00  -1.6080121241212237e+00  3.7673499116151010e-01  -1.8900907352417482e+00  -1.0259967719349385e+00  -1.6013610630712957e-01  1.0969330089764000e+00  -1.4647153866993754e+00  1.4530258269570224e+00  -1.4932601329539741e-01  -9.6102285872681617e-02  -6.8688312912439964e-01  -2.5995296118904382e-01  1.6653754878645630e+00  -1.6185276492869296e+00  -2.5855316365718656e-01  -1.6719029692091099e+00  4.4849107137694522e-01  -1.5787724608414742e+00  -2.1221221985180941e-01  -1.1059524825233158e+00  6.4241343701781217e-01  -1.6259103324171020e+00  -1.7443751547655284e+00  1.7217104155042469e+00  1.1461716222819089e+00  -1.4653113986079784e+00  -1.6301156345566263e+00  -1.5345018550381821e+00  -1.0982482418651116e+00  -1.4092560738923516e+00  -7.0915513580883349e-01  -7.7044207779752372e-01  -1.2413488351682489e+00  -4.5192726891103197e-01  -6.1578958211863166e-01  -3.6897549268234131e-01  -3.1307371369516734e-01  -3.1709480676729945e-01  -2.0902560898208064e-01  -2.8073622960542627e-01  -1.4691934425448547e-01  -1.6519312237651629e-01  -2.5044896255316379e-01  -1.5851651997188446e-01  -1.6286259325017463e-01  -1.5637177192420321e-01  -1.7766743580158087e-01  -1.5880931583398436e-01  -2.3758145276763737e-01  -1.6985676627801857e-01  -2.4729297639040468e-01  -3.5990492536943097e-01  -2.9453319229184033e-01  -5.1587206737953295e-01  -3.4846082101478809e-01  -6.1998725526011544e-01  -4.1100716588866920e-01  -4.0762181085934601e-01  -5.9060231739347169e-01  -3.965