<?xml version="1.0"?>
<VTKFile type="UnstructuredGrid"  version="0.1"  >
<UnstructuredGrid>
<Piece  NumberOfPoints="4269" NumberOfCells="8234">
<Points>
<DataArray  type="Float64"  NumberOfComponents="3"  format="ascii">0 1 0  0 0 0  7.5 0 0  7.5 1 0  1.197537668119028 0.5812868930080463 0  1.2 0.55 0  1.197537668119028 0.5187131069919538 0  1.190211303259031 0.4881966011250105 0  1.178201304837674 0.4592019000520907 0  1.161803398874989 0.4324429495415054 0  1.141421356237309 0.4085786437626905 0  1.117557050458495 0.3881966011250105 0  1.090798099947909 0.3717986951623264 0  1.06180339887499 0.3597886967409693 0  1.031286893008046 0.3524623318809725 0  1 0.35 0  0.9687131069919538 0.3524623318809725 0  0.9381966011250105 0.3597886967409694 0  0.9092019000520906 0.3717986951623264 0  0.8824429495415054 0.3881966011250105 0  0.8585786437626904 0.4085786437626905 0  0.8381966011250105 0.4324429495415054 0  0.8217986951623264 0.4592019000520907 0  0.8097886967409692 0.4881966011250107 0  0.8024623318809725 0.5187131069919539 0  0.8 0.55 0  0.8024623318809725 0.5812868930080463 0  0.8097886967409693 0.6118033988749896 0  0.8217986951623264 0.6407980999479095 0  0.8381966011250105 0.6675570504584947 0  0.8585786437626906 0.6914213562373096 0  0.8824429495415054 0.7118033988749896 0  0.9092019000520907 0.7282013048376736 0  0.9381966011250106 0.7402113032590307 0  0.9687131069919539 0.7475376681190276 0  1 0.75 0  1.031286893008046 0.7475376681190276 0  1.06180339887499 0.7402113032590307 0  1.090798099947909 0.7282013048376736 0  1.117557050458495 0.7118033988749896 0  1.141421356237309 0.6914213562373095 0  1.161803398874989 0.6675570504584947 0  1.178201304837674 0.6407980999479094 0  1.190211303259031 0.6118033988749896 0  3.75 0 0  3.75 1 0  1.875 0 0  1.875 1 0  0.9375 0 0  0.9375 1 0  1.40625 1 0  5.625 1 0  5.625 0 0  2.8125 1 0  2.8125 0 0  4.6875 0 0  4.6875 1 0  6.5625 0 0  6.5625 1 0  5.15625 0.5 0  4.21875 0.5 0  2.34375 0.5 0  3.28125 0.5 0  6.09375 0.5 0  7.5 0.5 0  6.897916666666666 0.5 0  1.842708333333333 0.5 0  0 0.5 0  0.46875 0 0  5.625 0.5302734375 0  7.03125 0 0  6.09375 1 0  2.8125 0.4697265625 0  3.28125 0 0  2.34375 1 0  2.34375 0 0  3.75 0.4697265625 0  4.21875 0 0  4.21875 1 0  4.6875 0.5302734375 0  3.28125 1 0  5.15625 0 0  6.09375 0 0  5.15625 1 0  0.46875 1 0  1.40625 0 0  7.03125 1 0  0.3954638734376499 0.5975780249976004 0  6.495833333333334 0.4072265624999998 0  5.859375 0.25 0  4.905729166666666 0.26513671875 0  4.453125 0.25 0  3.531770833333333 0.73486328125 0  3.968229166666667 0.73486328125 0  2.594270833333333 0.73486328125 0  3.030729166666667 0.73486328125 0  6.328125 0.75 0  7.198958333333334 0.3125000000000002 0  7.198958333333334 0.6874999999999998 0  5.390625 0.25 0  0 0.25 0  2.109375 0.75 0  2.109375 0.25 0  1.51921323205749 0.3418883887525936 0  1.522346610178253 0.6811769608297746 0  5.375456746419271 0.75 0  4.921875 0.76513671875 0  4.437956746419271 0.75 0  3.984375 0.23486328125 0  3.500456746419271 0.25 0  2.578125 0.23486328125 0  3.046875 0.23486328125 0  5.874543253580729 0.75 0  6.642123189445656 0.6909095493086836 0  6.746354166666666 0.2391688368055553 0  0.3197109619185111 0.2850049285972083 0  6.328125 0 0  0.6313375889370429 0.2351325552547357 0  0 0.75 0  6.252283381534729 0.2693808819694041 0  0.234375 1 0  6.948437500000001 0.7543055555555555 0  0.5934018769555939 0.7694151657947577 0  1.858854166666667 0.75 0  1.858854166666667 0.25 0  1.640625 0 0  2.093229166666667 0.5 0  7.5 0.25 0  3.282227579752604 0.75 0  7.5 0.75 0  1.171875 0 0  1.303539853147731 0.2235426933121065 0  5.148177083333333 0.2575683593749998 0  2.351822916666667 0.742431640625 0  1.640625 1 0  4.202380413457425 0.7645435094236485 0  3.047822985053062 0.4701848030090332 0  2.577177014946938 0.4701848030090332 0  4.672792740482199 0.76513671875 0  4.922822985053062 0.5298151969909668 0  5.390593497949761 0.5156244924311331 0  5.610292740482199 0.76513671875 0  3.516602579752604 0.5 0  4.45496853898097 0.4865915990446593 0  5.85753146101903 0.4865915990446593 0  3.749511210123698 0.23486328125 0  3.983397420247396 0.4999999999999999 0  2.343497975411212 0.2346270081980111 0  4.219002024588788 0.2346270081980111 0  0.703125 0 0  2.8125 0.2343755075688669 0  3.046875 0 0  2.578125 0 0  3.515625 0 0  3.984375 0 0  4.453125 1 0  5.390625 1 0  2.109375 0 0  2.109375 1 0  5.625 0.2921402030705575 0  5.390625 0 0  7.265625 0 0  6.796875 0 0  6.328125 1 0  3.046875 1 0  2.578125 1 0  3.984375 1 0  3.515625 1 0  4.453125 0 0  4.921875 0 0  5.859375 0 0  0.703125 1 0  1.171875 1 0  7.265625 1 0  4.921875 1 0  5.859375 1 0  0.234375 0 0  6.796875 1 0  6.980310975276531 0.2285890127127066 0  5.149170481934885 0.772689292163473 0  3.274170481934884 0.2273107078365268 0  6.101334126790364 0.7722468376159667 0  4.678005340872584 0.3000799877067239 0  2.8125 0.6921051326382495 0  3.75 0.6921051326382495 0  0.3515624999999999 0.8134571721668546 0  0.4990405774417521 0.4070099317153735 0  0.1789273931360182 0.625 0  6.31239060814315 0.5298877111157968 0  6.456979773992304 0.1917956348713352 0  6.699870808919271 0.4406293402777773 0  1.337539480965883 0.7944303676599538 0  6.058675797563041 0.2019812164653516 0  0.8203125 0.1643029084422534 0  0.1480856513011711 0.375 0  1.090769294689562 0.1719186776982972 0  7.291088163206459 0.5 0  7.094502414936563 0.5197902199074071 0  0.6046212059042245 0.5730066483871106 0  1.707231580809486 0.6342709161352207 0  1.685961352504593 0.8193269193390785 0  1.374721602852827 0.4600373025865813 0  6.486415510043844 0.5916440776477192 0  1.5234375 0.1508863828685116 0  1.707925830421689 0.3657739208189008 0  0.1674513225045584 0.8278776664019765 0  7.138268756771176 0.1438183366439137 0  7.1484375 0.8616388888888887 0  7.328562530764119 0.819498462930605 0  4.101073710123698 0.3678637200736647 0  1.693878467219965 0.1911955120941053 0  1.577566745468488 0.5110082404081502 0  6.6796875 0.8653871806883484 0  6.498039504430512 0.825568433346395 0  0.7562556668576472 0.8333197949571929 0  4.101045914668806 0.6255195807449272 0  5.030745188395182 0.382829047309028 0  2.476364945868651 0.6095868094762166 0  2.729359843907322 0.8460525663191247 0  2.9296875 0.8740763101564099 0  3.163518307559356 0.6254622797994247 0  3.666859843907322 0.8460525663191247 0  3.8671875 0.8740763101564099 0  4.8046875 0.12592368984359 0  3.14936031382311 0.8606990583876851 0  2.4609375 0.8747622921397776 0  5.023140791101972 0.1392266772452574 0  0 0.125 0  0.1759922923594607 0.1727589856739889 0  4.5703125 0.125 0  7.327755777818006 0.1766156770456191 0  5.5078125 0.125 0  5.719712725029036 0.1460701015352787 0  4.327848962028002 0.3674169956512513 0  5.982681121544351 0.3692637923021713 0  3.398926289876302 0.6245417594909667 0  5.281756792511996 0.3827993367299961 0  2.226822645963271 0.6252438868405666 0  2.234390064317166 0.8676616584526566 0  5.2734375 0.125 0  1.96796875 0.382568359375 0  2.234651037971999 0.3674169956512511 0  1.984114583333333 0.132568359375 0  1.9921875 0.875 0  1.984114583333333 0.632568359375 0  5.748733794462357 0.8678269127183313 0  3.3984375 0.875456329184688 0  1.512925924995415 0.8582958012121853 0  1.359299372802969 0.6275861864990343 0  4.810521420483513 0.4041767793635395 0  0.2996213306116602 0.455339710363317 0  5.999933717403708 0.6388425470751088 0  5.250033449003657 0.6388713364551682 0  3.631676045992918 0.3525406652400928 0  4.3359375 0.8816499670325881 0  4.343577437052484 0.6116511299909198 0  3.375033449003656 0.3611286635448316 0  5.763152151652243 0.6249404690537395 0  4.549347848347757 0.6249404690537396 0  5.5004588702411 0.6403667365776566 0  5.976118394847484 0.8816230218343086 0  5.054722486865804 0.6338007028640954 0  3.164542163493752 0.3520519332736524 0  2.445407482032355 0.3672168403687257 0  4.8046875 0.882568359375 0  4.1015625 0.117431640625 0  2.4609375 0.117431640625 0  2.695556894938151 0.3520510350344335 0  2.929443105061849 0.3520510350344335 0  3.881979231817319 0.3670559016511187 0  3.8671875 0.117431640625 0  4.805389247695744 0.6470047893641744 0  3.399370721942191 0.1184066543556767 0  5.274370721942192 0.881593345644323 0  3.618253274934649 0.1316869186284249 0  2.6953125 0.1171877537844335 0  2.9296875 0.1171877537844335 0  2.21873344389451 0.125 0  4.3359375 0.1171877625080073 0  0.6659898565672709 0.3986593551313873 0  7.363359022954956 0.3481046411219251 0  7.363359022954956 0.6518953588780749 0  5.487719392831826 0.3828237631077121 0  2.695054578344725 0.5809158475691247 0  2.944553877887707 0.5964065668438148 0  0.3515625 0.1201898858097106 0  5.5078125 1 0  4.5703125 1 0  5.031746201297604 0.882568359375 0  3.1640625 0 0  6.2109375 1 0  6.186845385763124 0.6336356480571081 0  4.1015625 1 0  6.810399074069772 0.6495574751396682 0  0.4740615253480797 0.2509287743856873 0  7.052064303830151 0.3684417917792242 0  6.195177069665382 0.1216488332168849 0  5.72300154718324 0.4112068202852788 0  3.879157465495092 0.6111892850691246 0  3.645760045247695 0.5809158475691247 0  6.868257400485771 0.3427840810237202 0  6.612030892260864 0.1521752713064389 0  6.615666885941117 0.3151079644097221 0  4.04296875 0.8633718902669071 0  1.183031453639096 0.8486801864185936 0  6.9140625 0 0  6.859079526500421 0.1398292786950638 0  6.808232443325651 0.7957411753922057 0  6.9140625 1 0  4.544955211100143 0.3675874343205077 0  1.0546875 1 0  6.122060236165557 0.3316791557072867 0  0.5859375 0 0  5.9765625 0 0  5.44921875 0.870984788733638 0  4.51171875 0.870984788733638 0  0.7608354256382215 0.2931261274224557 0  6.386875332239937 0.3156583003094978 0  6.985654756850997 0.6147408423643147 0  6.223797257919172 0.8535621912121121 0  5.936822413218736 0.1338376546337823 0  6.23933008800134 0.4095573603773768 0  0.5414022462152697 0.1305482677949959 0  6.331360438104348 0.1370086318183389 0  0.956404929269873 0.1374266563647954 0  1.2890625 1 0  0.691305981127761 0.6764829884281737 0  3.531251607241209 0.8678916320952239 0  2.59787442813022 
[...]
<PointData  Scalars="f_71633"> 
<DataArray  type="Float64"  Name="f_71633"  format="ascii">7.3247506866838585e-01  7.9126497585726208e-01  0.0000000000000000e+00  0.0000000000000000e+00  -1.5612515018143294e+00  -1.3298425766612827e+00  -9.2808125195000080e-01  -5.6436511020905622e-01  -3.5794316423385419e-01  -2.5335560126611167e-01  -1.7975230360621750e-01  -1.5235769499018692e-01  -1.6497687113308537e-01  -1.9249614931959991e-01  -2.6843274998500155e-01  -4.0545808168803876e-01  -5.5321715790671666e-01  -6.2786101800935690e-01  -5.1170913223923020e-01  -2.2406501979402890e-01  2.2365752604359790e-01  7.4133794354432403e-01  1.2314865688890935e+00  1.6455953585360430e+00  1.8798057021500378e+00  1.8945751176666812e+00  1.6723854543802614e+00  1.2508656978194315e+00  6.5804310265812316e-01  3.1901034488334451e-02  -6.2905545358407899e-01  -1.2475280785665159e+00  -1.7125744788196589e+00  -2.0107531489239463e+00  -2.1348932168306574e+00  -2.0413201929819929e+00  -1.8726605510629926e+00  -1.7163867731777169e+00  -1.6130354659402526e+00  -1.5522538523110740e+00  -1.5187393364849535e+00  -1.5126635418475052e+00  -1.5404412055167305e+00  -1.5855529629478649e+00  -1.1520331755579698e-02  1.1135460669985109e-01  -4.0903473456841782e-01  6.1547459518217197e-02  4.8288167763232742e-01  -3.7049109566528632e-01  -8.2260351942689192e-01  4.1501027419591260e-02  4.1848390194366779e-02  -6.0840710175127721e-01  2.8065538881788704e-01  6.5950257853673935e-02  6.4348026228376681e-02  1.7394678488326470e-02  3.2475137773592719e-02  5.4874275923615413e-02  8.0149114135451616e-02  -2.1966115618254574e-02  -6.7949995505105998e-01  3.2000406940057138e-02  0.0000000000000000e+00  1.0436167170071722e-02  -1.2246100361900929e+00  7.9763495582774258e-01  7.9707229210186037e-01  4.3370465985934921e-02  4.7954412072814204e-03  3.4403058403084302e-02  -1.1651040153990124e+00  7.1949903673284793e-03  2.4309768037419358e-01  -2.7076917389193994e-01  -2.6698317863643035e-02  6.6395079960407069e-02  8.1063997428079418e-02  6.6431696907576651e-02  2.3977100241567600e-01  5.0358266343068073e-02  3.0296721214894219e-02  5.3478273752929469e-02  6.6596513780837741e-01  -2.1342472501522392e-01  -1.9849617610054719e-02  8.7765468121910395e-01  2.0089526256297601e-02  3.8130325934362323e-02  6.0549384687456076e-02  6.7897221309694805e-02  1.9051007450088811e-01  9.9559520276152294e-02  -1.6275286365478087e-01  -7.0231389202016692e-01  2.5749486452725071e-02  6.1657637075427903e-03  5.3422174595863037e-03  4.9060054103474859e-02  7.9512647513485346e-01  2.5308727104494638e-01  -3.5031857581795900e-01  -1.2960746643526360e+00  -1.7101786015176663e+00  4.8816035682771090e-02  6.0691289316881322e-02  7.6465911395819777e-02  4.4847636686848810e-02  -1.4697987188754347e-01  -6.7864647151440050e-01  3.2785496627706973e-01  3.7132026738034292e-02  1.7647658154448045e-02  1.2839254168423584e-02  8.2124660358841184e-01  2.4841670736550588e-02  8.5012359755391975e-01  7.5096061366039324e-01  2.5718805551570550e-02  7.2443156183817992e-01  6.3648902146065493e-03  7.3761792667277826e-01  1.8651381644611162e-01  -5.9668619855041860e-01  -3.0042532457482224e-01  1.1021930974124541e-02  0.0000000000000000e+00  -9.0681615754430243e-04  0.0000000000000000e+00  9.7780487351601955e-02  -1.8478223364439406e-01  5.4036887973694672e-02  2.0843220887938055e-01  -4.3147472389375119e-01  8.5825283368723262e-02  -6.2736536184365055e-01  -4.8370976778647529e-01  6.7418503316821546e-02  6.0990010031944181e-02  4.9017696879321886e-02  4.3214784281991631e-02  -1.9919607163811495e-01  7.2813249424416068e-02  3.7915267708381890e-02  -2.4689007084155487e-02  8.1647318725485529e-02  -2.3515187628852852e-01  6.5413462102168848e-02  7.6895021117408258e-01  3.3510665227871483e-01  3.0447229026971634e-01  -2.1883742473087475e-01  -9.0578936426632617e-02  4.2584129534581086e-02  7.4328719778944632e-02  4.7282794876983156e-02  -4.8775774595274052e-01  3.4567784851770439e-01  4.3467793254230960e-02  4.6436922312428797e-02  9.8976073056351935e-03  4.0191193301526281e-03  2.9409248272371499e-02  -3.0205727486259698e-01  -2.4499704899779966e-02  8.8831773831082372e-02  3.1648577345757306e-01  6.7971716295162771e-02  5.9596921567614730e-02  3.2672408856100565e-02  4.3644390084234019e-01  -1.0229522739317614e+00  -1.2487928491974975e-02  5.7651594422380832e-02  3.8521184952141532e-02  7.9061224025936438e-01  4.4911953631964881e-02  8.6384942724903740e-03  5.4705874373227256e-02  -1.1524830679252100e-01  3.2191333739976132e-02  6.5742068239839468e-02  -1.4110805274049072e+00  2.5786626002830648e-03  7.2980435357475915e-01  9.8436381035122211e-01  7.9015841327764458e-01  2.5238399236793056e-02  1.5058873433468368e-02  1.4326760971135026e-02  -1.4786898707856502e+00  3.1064632591454748e-02  6.2779702645320146e-01  8.0628687534251453e-01  1.3717639106551158e-01  -8.8778519106606378e-04  7.6422135453469700e-03  1.1850544363837894e+00  -5.0383849792523816e-01  -2.3106920803658373e-01  -1.1430536471794182e+00  2.0520132052324298e-02  -3.8175114041205399e-01  -1.2564422344099351e+00  7.3945863357726493e-01  1.0527509243808222e-03  -9.6690011410220603e-03  -2.8167048458828127e-03  6.8896455456603653e-02  -5.2399062017695308e-01  -1.2192348002738567e+00  1.7121128010178181e-02  2.2308911037512428e-02  3.1969322364801400e-01  9.2129272596230466e-02  5.6835345764296059e-02  -3.8242826931708940e-03  -5.7314658857127621e-01  -8.4627674734297342e-01  -3.3243153774535300e-01  1.5294715427680181e-01  1.0472107457436125e-01  6.2617816059891585e-02  -1.0290076079056937e-01  1.5589663135719059e-01  5.6844765198484429e-02  7.9150784709445776e-01  7.9209955364865003e-01  6.7502434930928168e-02  4.0251725954591920e-03  4.5496576923304784e-02  4.0676653752322378e-02  7.4276396975387807e-02  3.4939927680793979e-02  -1.8444736587602920e-01  5.1357502804489558e-02  1.2948458880575411e-01  3.3804666582378223e-01  5.0416364362860004e-02  -3.8902380551849780e-01  -1.4990993465141900e-01  -6.8354952149249737e-01  2.7436021179362452e-01  8.1508498717079797e-02  4.0351727219240623e-02  3.0471254486327942e-01  -7.8485262360853514e-01  -1.9968378356527940e+00  6.2439059574266619e-02  8.5033368874955817e-01  3.4543430808835936e-02  5.1896567835435031e-02  -9.6286655685374020e-02  7.9793424159034843e-02  7.6144387634683550e-02  -4.8553114336804531e-01  3.9711312169779189e-02  6.9203146837078483e-02  4.6071957020927333e-02  3.4993712137158225e-02  5.6343231994812178e-02  -2.0727024329909990e-01  -3.7160630645881570e-01  6.4860650692212030e-02  5.9998131020575635e-02  -2.7551560177022866e-01  -5.7539604948534095e-01  -1.5273999222515916e-01  4.3218808841869162e-02  1.9226692247364917e-02  6.3262342764022192e-02  -9.5124791879892617e-02  5.2757769713154087e-02  -6.1510553492324760e-02  -4.2075515203070346e-02  4.2164643917101852e-01  -3.2884472599186088e-01  6.8501184006356020e-02  1.1690846980122804e+00  6.6002423550551841e-03  -1.5177134770786363e-03  4.5733769671782144e-02  -9.3132394732545332e-01  -1.4062947462045385e+00  7.9169007737116293e-01  4.7793246914668450e-02  7.0880878302611722e-02  5.9192439971522619e-02  1.5044158744838643e-01  3.0394755735929681e-02  2.8741152178115362e-02  9.5701368274698051e-02  1.1938767135047327e-02  8.4277614947807522e-01  3.1071638657539711e-03  3.0103045223079238e-02  4.0375054461459815e-02  9.4749869733864914e-02  -6.4556673110979679e-02  9.5889847356728924e-03  1.2682223417242006e-02  1.2212013564106828e-02  9.4560200344230669e-02  -1.2611736980027501e+00  2.2901710002329798e-02  1.3108271708180604e-02  7.0390067672092211e-03  -2.1410987728376317e-02  6.9543889086281799e-02  -8.5614623819409286e-01  2.9265092977478705e-02  7.9483148799319570e-01  3.8398018515840723e-02  4.7537912723375000e-02  7.3298675279926409e-02  7.9266522271775774e-01  2.1192699231387797e-02  4.4828051830094421e-03  2.9031932592894882e-02  3.6619152510545663e-02  2.8306332755252930e-02  8.0144271678657908e-01  2.3439012733437774e-02  4.0575649347831610e-01  -1.0143034006917953e+00  1.0089107769894701e+00  2.8815434817505292e-01  -4.7916037890990505e-02  -1.1766886686042446e+00  -3.2575255352581722e-01  1.4895446342349616e-01  7.9787370070196306e-01  6.7820305091250244e-01  -2.1613072671733558e-01  -4.5034939951880508e-02  1.7980859573680789e-02  -3.5349407009628792e-01  3.7711682558580185e-02  -4.1944196496939137e-03  -3.6396566199036963e-03  5.8210466113957116e-01  -9.7556627790790562e-01  7.6462005025373092e-01  -3.4351948924765500e-02  8.1282676820926758e-01  5.4017828945691918e-02  -2.5380036371007753e-01  -7.1092026696488420e-01  -1.7596091536576652e-01  -9.5073590165186350e-01  -4.9921474882642602e-01  -3.0168423314392245e-01  1.4209924354011163e-02  3.0095549971091751e-02  0.0000000000000000e+00  0.0000000000000000e+00  7.3512995893773425e-01  8.0052526057994078e-01  7.7637664273022766e-01  0.0000000000000000e+00  0.0000000000000000e+00  2.6437769712205541e-02  1.5135883609288733e-01  -1.0592658838434943e-02  -1.9404770113605228e+00  -7.6146739286086618e-01  -2.2708368380139662e-02  7.9043107355714759e-01  -2.3115689829190519e-01  7.6371061137230634e-01  1.1703065600827655e-02  4.1060465780869686e-02  8.5677676645287887e-02  1.7743652066207499e-01  5.0807464661338758e-02  5.3509731265823729e-02  2.6153960339700477e-01  7.5293506948912028e-02  5.6793755659233065e-02  1.3108660763601426e-01  2.1534064636115188e-01  3.3163218592295057e-01  7.3137939670592389e-01  5.4159961692272696e-01  3.9081485237928267e-02  4.4832188383380711e-02  3.7242678326190166e-02  4.3345236603727945e-02  3.4184615851723700e-02  7.4071418464011940e-02  3.8425210542302357e-02  6.9204736460868874e-02  1.3330297163748322e-02  7.9359141229188274e-02  8.8075662814575933e-02  8.9289983102152665e-02  -1.9651434872455997e-01  6.3893030175270468e-02  -2.2258027274784001e-01  5.5683124318021922e-02  -6.1539987622775272e-01  -1.9935565198824536e-02  8.3079713762439070e-02  -8.3847740566531534e-02  -5.3614066180892483e-01  5.6293882621837980e-02  6.1000961748634307e-02  -7.9290081258106149e-01  -1.1226397809662687e+00  6.2982356786766197e-02  6.6991637302114340e-02  4.3312873842241285e-02  4.3076368633741875e-02  6.6740055578466545e-02  4.6626602631834678e-02  7.0714147989106996e-02  -1.3426910429214145e-02  5.0207155852473706e-02  -3.5464711965513956e-02  4.8979780518182900e-02  -1.7588009391966648e-02  2.9312534890166414e-02  4.5356080407406907e-02  -5.1752752010024772e-01  6.5746434543316967e-02  -2.5869610735862764e-01  -2.6345948025072602e-01  -4.1124716115524573e-01  7.0485779034446541e-02  6.7731774064305111e-02  6.5914010071930096e-02  4.7583237976150189e-01  -2.7818882901374997e-01  -2.8622930609024633e-01  6.5820497769920383e-02  3.0913685370033361e-02  7.8990391871991816e-01  6.7474003668424598e-02  -3.3239247011297413e-01  3.0742466931122736e-01  3.8594202080543488e-01  8.8110018331411237e-04  -6.6022308152376308e-02  4.4941246642957608e-02  1.5193856369364449e-02  -2.6803046736696451e-01  5.9366246121344203e-02  6.7378106178091257e-02  8.0672337253604620e-02  -5.1273806177267581e-02  3.0162225012054944e-01  4.1283788794277104e-02  2.6044464672294659e-01  -5.9663048953458486e-01  5.3103023857447883e-02  3.2247595798454770e-01  4.1564485724767251e-02  4.8555865137941391e-02  4.6752150609392154e-02  6.7672662864261421e-02  5.7705833420008790e-02  1.3898704206854609e-01  3.9780560623796826e-02  6.3013182704763915e-02  1.1791289624120584e-01  2.1028379549792328e-01  -6.3998283442352644e-01  -3.0841425264336142e-01  -1.3099465879681376e-02  -2.0821075787668179e-02  -7.3237674591892121e-02  3.4369363525791663e-01  6.7501357195990841e-01  8.9704994027277104e-03  7.0151891660178167e-01  1.0482826969938387e-02  5.3612483387372484e-02  -2.4768699880701961e-01  -6.8062690685487748e-01  3.4574078398926650e-02  6.0228301553310916e-02  7.2341439713934863e-02  5.3628955170853337e-02  1.2829811342217586e-02  2.2358039235119673e-02  1.9136941236263607e-02  7.4146735652486518e-03  3.2532470590767889e-03  -4.4457531293710528e-01  2.3517395087544068e-04  -8.6338748873944404e-01  6.3306669515868677e-02  6.5305547771786918e-02  6.7760992953686067e-02  -7.5578543429842366e-03  3.2474173744726165e-01  -8.3963692519238942e-01  -8.1098359514040139e-02  -1.3861916689631318e-01  2.8707896253614040e-01  3.3767152539200165e-02  3.5125532467330765e-02  3.8878473169991122e-02  5.7593016157632695e-02  5.3267945409151828e-02  -2.2657434301049171e-03  -1.9850416228728815e-01  5.1960621249921984e-02  5.9671142767580683e-02  2.2724902518724648e-02  7.1754361341618542e-02  2.4010171234983724e-01  5.3564556496203033e-03  2.3918920911195681e-02  -6.4342850968923482e-01  2.9484766807833320e-02  -8.2666946170762423e-02  1.3458143243856968e-01  -1.2472278728679747e+00  -1.3782461919387152e+00  2.1844577954284253e-02  -9.1333679304608395e-01  9.6557854315178382e-02  -1.5958913069345786e+00  -7.7082856000456876e-02  6.0337769248854235e-02  -7.5330336100667250e-01  2.8649475896226378e-02  -3.4299364762905854e-01  7.2337056725825088e-01  -5.0852882515356634e-01  -9.5140833139336065e-02  6.6867505211596068e-02  2.0672208507378474e-02  1.7971958881652563e-02  6.0491129521420210e-02  7.9128691619643909e-01  7.6640045695757075e-01  8.1555793878983263e-01  4.0024058400369301e-02  3.6205011720493806e-02  6.9458729313463904e-02  9.1918088466395931e-01  8.7000155221451803e-01  9.4002056853587890e-01  -9.6679687250355539e-01  -1.4769408428563491e+00  -1.2267767877534570e+00  1.2182079116946364e-01  2.1524538120238929e-02  -6.3339534888525917e-01  4.2771441178369000e-02  1.0455044359151651e+00  9.5543424815520683e-01  -7.5171949132005378e-01  -1.1019926767359753e+00  -1.6989161948512788e-01  -5.9758218343206526e-01  -1.4159630626956095e+00  -1.2592720072084368e-03  2.3800149577514620e-04  8.4420560300383751e-02  1.6772737283698623e-02  1.5618213805655808e-02  8.7015838793096448e-03  3.2385753155259586e-02  7.5360337001646446e-02  4.8424014825598237e-02  1.5056434115285020e+00  3.0927663694087660e-02  3.3845157018709285e-02  -4.7835961582972384e-03  7.9904022063356972e-01  8.0261349276543870e-01  8.2764959702566121e-01  8.9725950661170839e-03  1.2507122651971106e-02  6.4845745946986624e-02  -2.5093001629191292e-01  7.9529986568089928e-01  -3.2761960230596388e-01  1.5109968488437308e-02  2.3431252808108319e-02  -5.5541634653624478e-04  7.4965486296421713e-03  1.7922242257843040e-02  9.6076385398368114e-01  1.1443876601908529e-01  7.9336509767429120e-01  -1.5304847894676450e+00  -4.5477250707645761e-01  1.1049147902418491e-02  5.4515458693403428e-02  -1.2641621318316996e+00  -3.3762700503629078e-01  -5.1179685603587299e-01  6.9353132300134412e-01  8.0319357241339184e-01  5.8639403516663946e-01  6.8129799034713154e-02  -5.7160022690772028e-01  -1.9015032885935912e-03  -1.7244152046600721e-03  -8.8242313397688260e-03  5.3430785533814017e-03  2.4169884908815976e-03  -1.0274940943418867e+00  7.8893917671942426e-01  -2.0869566786486587e-02  7.2283805931871448e-02  -1.1427655128613710e+00  -1.0854698070536044e+00  -1.2671389493967833e+00  -7.7844820516659596e-01  7.9527411905426004e-01  1.9586135326499785e-01  1.1362373015368681e+00  2.4254072731731632e-02  3.2144056211992754e-02  1.7371221070437540e-02  2.7289634152223734e-02  4.4624688694624215e-02  -3.9537603133203530e-01  -7.7626787567585693e-03  -1.0767637079240132e-02  3.4079806608100891e-03  -7.7677490618192294e-03  4.6647161343250912e-03  4.8072319051673779e-01  7.2918588677451479e-01  7.4152991054723660e-01  3.3041069979365241e-02  1.3015591897136874e-01  -1.6318178985680168e-01  4.2995122542485248e-02  7.9132789698679051e-01  2.4001222889061830e-02  7.3320246818710899e-01  8.2927926058335970e-03  1.7754199730594767e-02  3.3254067242137995e-03  9.1481230514184071e-03  7.9308898540201334e-01  -2.0187411948871203e-01  2.6266237951337354e-02  -6.8049239607491069e-02  3.0680895029882103e-02  1.8677087909005425e-02  2.6096788774734292e-03  -1.6018294374271077e-03  8.0577997881563035e-01  6.5434970802965634e-02  7.9799102943284260e-03  2.7663132971962756e-01  1.7146740911074154e-02  6.3655064893221502e-01  1.2262606662347499e-02  -1.2876782219906211e+00  8.4057210042809347e-02  -6.2571365613173641e-02  1.2867667142228342e-01  7.7967412728638796e-01  1.8861623068673703e-02  7.4689412928081539e-02  5.5699370459073902e-02  6.6225723413933194e-02  9.5895819205012278e-02  7.5280124383076685e-02  7.2170056186490406e-01  1.0862904795781751e+00  5.0103525561679685e-02  -4.7524649443831507e-01  1.7340797090353463e-01  -1.1590867224321049e+00  6.1091500998985748e-02  2.6345270222039939e-02  3.7921637430653660e-02  1.5643450014844369e-03  1.3145149345893040e-02  9.5555652174772882e-03  3.9164968257572015e-03  9.5400372168381889e-02  -1.4028861949715676e-01  -5.5145098861688358e-01  6.9919112956392360e-02  4.0570733746688757e-02  3.9885277646508725e-02  3.3380063362278362e-02  -4.0272534123193182e-03  5.9207817824624427e-02  5.5683947669476451e-02  8.1212100052562977e-02  2.1434671770685984e-01  -4.2875498494833447e-01  3.0462471682736265e-02  -9.3098795249137334e-02  -5.0120449310564386e-01  -8.8645614914637139e-01  6.1005646453856491e-02  8.5224922167920181e-01  2.7833494854031610e-02  5.1667001137455176e-02  5.0570316036032181e-02  7.3928525729072381e-02  -9.7704820345412599e-02  -2.2256107581873866e-01  6.7727889258932431e-02  5.6407143430504660e-02  5.5349394702619396e-02  5.9621165374939292e-02  -5.7768532258840266e-01  2.4297716897248942e-01  9.9283900261971647e-02  6.3601813701827103e-02  -1.6344444444426523e-01  -7.1516019919708573e-01  -5.4835719345663947e-01  -4.9445259652569612e-01  2.7260699940979016e-01  3.0165579842293722e-01  -2.0041414168321832e+00  -1.3729843905994374e-01  3.5409604481055776e-02  3.5112418871516546e-02  3.3536050914348102e-02  2.0384504872198575e-01  7.1177735613141127e-02  5.3970554879347710e-02  2.9618934441223484e-02  -2.6998190839757152e-01  -7.4359514189541107e-02  -4.8713790925999501e-01  1.9806689127742896e-01  5.8116405260070871e-02  1.3496239258836468e-01  4.9929961253660761e-02  4.7343568033036534e-02  2.9810195416683760e-01  6.8541615727827090e-02  2.8413876041295766e-01  5.2512501535844434e-02  5.2840499337840727e-02  -6.8511298336632531e-03  9.7626049018780886e-02  3.1270053675850695e-01  2.8818222515461889e-01  4.4521980399339023e-02  6.1417907552835227e-01  2.7438748855329959e-01  1.3852272432353232e+00  -1.4126290536329535e+00  -1.5006997031322391e+00  3.7935485365845950e-01  -1.8012100623558749e+00  -1.0044551775218611e+00  -1.3996307189593452e-01  1.1025356398076462e+00  -1.4178452853883301e+00  1.4562410885697950e+00  -1.4958442606407668e-01  -8.5324346999963482e-02  -7.7637671716091516e-01  -2.4771321319456169e-01  1.6689815179980596e+00  -1.4894203747050565e+00  -2.4858944422000900e-01  -1.5484106737183434e+00  4.5590289143976687e-01  -1.5388316875529451e+00  -2.0041036049750238e-01  -1.0843082726501458e+00  6.4804982416396995e-01  -1.5711282478512736e+00  -1.6443924299595776e+00  1.7252660378591873e+00  1.1512109013833245e+00  -1.4599504389532834e+00  -1.5859200068490231e+00  -1.5043938230154057e+00  -1.1254678405781777e+00  -1.4003199840560387e+00  -7.2508494766550224e-01  -8.1029352383366682e-01  -1.2540702577548963e+00  -4.4371001965033724e-01  -6.4586760116285091e-01  -3.6261727814450662e-01  -2.9778082417952217e-01  -3.0284468584944463e-01  -2.1493399925796655e-01  -2.6131022179568553e-01  -1.5709873087936135e-01  -1.7252425385113176e-01  -2.3475301891037834e-01  -1.5836606638725950e-01  -1.6204705984125087e-01  -1.5981175407996234e-01  -1.7465328639017910e-01  -1.6002587240575336e-01  -2.2380565076850878e-01  -1.6731774384319953e-01  -2.3033501856685987e-01  -3.3015907554732415e-01  -2.7099059809816445e-01  -4.7433309764661874e-01  -3.1930615618843822e-01  -5.7719372971788163e-01  -3.8278688745972811e-01  -3.7397319268807711e-01  -5.5438485320388964e-01  -3.6973794927038522e-01  -3.4051032823091537e-01  1.8885940562522026e-02  -3.4931069318994501e-01  -3.5716890274193246e-02  2.3250668970455912e-02  1.486