<?xml version="1.0"?>
<VTKFile type="UnstructuredGrid"  version="0.1"  >
<UnstructuredGrid>
<Piece  NumberOfPoints="4269" NumberOfCells="8234">
<Points>
<DataArray  type="Float64"  NumberOfComponents="3"  format="ascii">0 1 0  0 0 0  7.5 0 0  7.5 1 0  1.197537668119028 0.5812868930080463 0  1.2 0.55 0  1.197537668119028 0.5187131069919538 0  1.190211303259031 0.4881966011250105 0  1.178201304837674 0.4592019000520907 0  1.161803398874989 0.4324429495415054 0  1.141421356237309 0.4085786437626905 0  1.117557050458495 0.3881966011250105 0  1.090798099947909 0.3717986951623264 0  1.06180339887499 0.3597886967409693 0  1.031286893008046 0.3524623318809725 0  1 0.35 0  0.9687131069919538 0.3524623318809725 0  0.9381966011250105 0.3597886967409694 0  0.9092019000520906 0.3717986951623264 0  0.8824429495415054 0.3881966011250105 0  0.8585786437626904 0.4085786437626905 0  0.8381966011250105 0.4324429495415054 0  0.8217986951623264 0.4592019000520907 0  0.8097886967409692 0.4881966011250107 0  0.8024623318809725 0.5187131069919539 0  0.8 0.55 0  0.8024623318809725 0.5812868930080463 0  0.8097886967409693 0.6118033988749896 0  0.8217986951623264 0.6407980999479095 0  0.8381966011250105 0.6675570504584947 0  0.8585786437626906 0.6914213562373096 0  0.8824429495415054 0.7118033988749896 0  0.9092019000520907 0.7282013048376736 0  0.9381966011250106 0.7402113032590307 0  0.9687131069919539 0.7475376681190276 0  1 0.75 0  1.031286893008046 0.7475376681190276 0  1.06180339887499 0.7402113032590307 0  1.090798099947909 0.7282013048376736 0  1.117557050458495 0.7118033988749896 0  1.141421356237309 0.6914213562373095 0  1.161803398874989 0.6675570504584947 0  1.178201304837674 0.6407980999479094 0  1.190211303259031 0.6118033988749896 0  3.75 0 0  3.75 1 0  1.875 0 0  1.875 1 0  0.9375 0 0  0.9375 1 0  1.40625 1 0  5.625 1 0  5.625 0 0  2.8125 1 0  2.8125 0 0  4.6875 0 0  4.6875 1 0  6.5625 0 0  6.5625 1 0  5.15625 0.5 0  4.21875 0.5 0  2.34375 0.5 0  3.28125 0.5 0  6.09375 0.5 0  7.5 0.5 0  6.897916666666666 0.5 0  1.842708333333333 0.5 0  0 0.5 0  0.46875 0 0  5.625 0.5302734375 0  7.03125 0 0  6.09375 1 0  2.8125 0.4697265625 0  3.28125 0 0  2.34375 1 0  2.34375 0 0  3.75 0.4697265625 0  4.21875 0 0  4.21875 1 0  4.6875 0.5302734375 0  3.28125 1 0  5.15625 0 0  6.09375 0 0  5.15625 1 0  0.46875 1 0  1.40625 0 0  7.03125 1 0  0.3954638734376499 0.5975780249976004 0  6.495833333333334 0.4072265624999998 0  5.859375 0.25 0  4.905729166666666 0.26513671875 0  4.453125 0.25 0  3.531770833333333 0.73486328125 0  3.968229166666667 0.73486328125 0  2.594270833333333 0.73486328125 0  3.030729166666667 0.73486328125 0  6.328125 0.75 0  7.198958333333334 0.3125000000000002 0  7.198958333333334 0.6874999999999998 0  5.390625 0.25 0  0 0.25 0  2.109375 0.75 0  2.109375 0.25 0  1.51921323205749 0.3418883887525936 0  1.522346610178253 0.6811769608297746 0  5.375456746419271 0.75 0  4.921875 0.76513671875 0  4.437956746419271 0.75 0  3.984375 0.23486328125 0  3.500456746419271 0.25 0  2.578125 0.23486328125 0  3.046875 0.23486328125 0  5.874543253580729 0.75 0  6.642123189445656 0.6909095493086836 0  6.746354166666666 0.2391688368055553 0  0.3197109619185111 0.2850049285972083 0  6.328125 0 0  0.6313375889370429 0.2351325552547357 0  0 0.75 0  6.252283381534729 0.2693808819694041 0  0.234375 1 0  6.948437500000001 0.7543055555555555 0  0.5934018769555939 0.7694151657947577 0  1.858854166666667 0.75 0  1.858854166666667 0.25 0  1.640625 0 0  2.093229166666667 0.5 0  7.5 0.25 0  3.282227579752604 0.75 0  7.5 0.75 0  1.171875 0 0  1.303539853147731 0.2235426933121065 0  5.148177083333333 0.2575683593749998 0  2.351822916666667 0.742431640625 0  1.640625 1 0  4.202380413457425 0.7645435094236485 0  3.047822985053062 0.4701848030090332 0  2.577177014946938 0.4701848030090332 0  4.672792740482199 0.76513671875 0  4.922822985053062 0.5298151969909668 0  5.390593497949761 0.5156244924311331 0  5.610292740482199 0.76513671875 0  3.516602579752604 0.5 0  4.45496853898097 0.4865915990446593 0  5.85753146101903 0.4865915990446593 0  3.749511210123698 0.23486328125 0  3.983397420247396 0.4999999999999999 0  2.343497975411212 0.2346270081980111 0  4.219002024588788 0.2346270081980111 0  0.703125 0 0  2.8125 0.2343755075688669 0  3.046875 0 0  2.578125 0 0  3.515625 0 0  3.984375 0 0  4.453125 1 0  5.390625 1 0  2.109375 0 0  2.109375 1 0  5.625 0.2921402030705575 0  5.390625 0 0  7.265625 0 0  6.796875 0 0  6.328125 1 0  3.046875 1 0  2.578125 1 0  3.984375 1 0  3.515625 1 0  4.453125 0 0  4.921875 0 0  5.859375 0 0  0.703125 1 0  1.171875 1 0  7.265625 1 0  4.921875 1 0  5.859375 1 0  0.234375 0 0  6.796875 1 0  6.980310975276531 0.2285890127127066 0  5.149170481934885 0.772689292163473 0  3.274170481934884 0.2273107078365268 0  6.101334126790364 0.7722468376159667 0  4.678005340872584 0.3000799877067239 0  2.8125 0.6921051326382495 0  3.75 0.6921051326382495 0  0.3515624999999999 0.8134571721668546 0  0.4990405774417521 0.4070099317153735 0  0.1789273931360182 0.625 0  6.31239060814315 0.5298877111157968 0  6.456979773992304 0.1917956348713352 0  6.699870808919271 0.4406293402777773 0  1.337539480965883 0.7944303676599538 0  6.058675797563041 0.2019812164653516 0  0.8203125 0.1643029084422534 0  0.1480856513011711 0.375 0  1.090769294689562 0.1719186776982972 0  7.291088163206459 0.5 0  7.094502414936563 0.5197902199074071 0  0.6046212059042245 0.5730066483871106 0  1.707231580809486 0.6342709161352207 0  1.685961352504593 0.8193269193390785 0  1.374721602852827 0.4600373025865813 0  6.486415510043844 0.5916440776477192 0  1.5234375 0.1508863828685116 0  1.707925830421689 0.3657739208189008 0  0.1674513225045584 0.8278776664019765 0  7.138268756771176 0.1438183366439137 0  7.1484375 0.8616388888888887 0  7.328562530764119 0.819498462930605 0  4.101073710123698 0.3678637200736647 0  1.693878467219965 0.1911955120941053 0  1.577566745468488 0.5110082404081502 0  6.6796875 0.8653871806883484 0  6.498039504430512 0.825568433346395 0  0.7562556668576472 0.8333197949571929 0  4.101045914668806 0.6255195807449272 0  5.030745188395182 0.382829047309028 0  2.476364945868651 0.6095868094762166 0  2.729359843907322 0.8460525663191247 0  2.9296875 0.8740763101564099 0  3.163518307559356 0.6254622797994247 0  3.666859843907322 0.8460525663191247 0  3.8671875 0.8740763101564099 0  4.8046875 0.12592368984359 0  3.14936031382311 0.8606990583876851 0  2.4609375 0.8747622921397776 0  5.023140791101972 0.1392266772452574 0  0 0.125 0  0.1759922923594607 0.1727589856739889 0  4.5703125 0.125 0  7.327755777818006 0.1766156770456191 0  5.5078125 0.125 0  5.719712725029036 0.1460701015352787 0  4.327848962028002 0.3674169956512513 0  5.982681121544351 0.3692637923021713 0  3.398926289876302 0.6245417594909667 0  5.281756792511996 0.3827993367299961 0  2.226822645963271 0.6252438868405666 0  2.234390064317166 0.8676616584526566 0  5.2734375 0.125 0  1.96796875 0.382568359375 0  2.234651037971999 0.3674169956512511 0  1.984114583333333 0.132568359375 0  1.9921875 0.875 0  1.984114583333333 0.632568359375 0  5.748733794462357 0.8678269127183313 0  3.3984375 0.875456329184688 0  1.512925924995415 0.8582958012121853 0  1.359299372802969 0.6275861864990343 0  4.810521420483513 0.4041767793635395 0  0.2996213306116602 0.455339710363317 0  5.999933717403708 0.6388425470751088 0  5.250033449003657 0.6388713364551682 0  3.631676045992918 0.3525406652400928 0  4.3359375 0.8816499670325881 0  4.343577437052484 0.6116511299909198 0  3.375033449003656 0.3611286635448316 0  5.763152151652243 0.6249404690537395 0  4.549347848347757 0.6249404690537396 0  5.5004588702411 0.6403667365776566 0  5.976118394847484 0.8816230218343086 0  5.054722486865804 0.6338007028640954 0  3.164542163493752 0.3520519332736524 0  2.445407482032355 0.3672168403687257 0  4.8046875 0.882568359375 0  4.1015625 0.117431640625 0  2.4609375 0.117431640625 0  2.695556894938151 0.3520510350344335 0  2.929443105061849 0.3520510350344335 0  3.881979231817319 0.3670559016511187 0  3.8671875 0.117431640625 0  4.805389247695744 0.6470047893641744 0  3.399370721942191 0.1184066543556767 0  5.274370721942192 0.881593345644323 0  3.618253274934649 0.1316869186284249 0  2.6953125 0.1171877537844335 0  2.9296875 0.1171877537844335 0  2.21873344389451 0.125 0  4.3359375 0.1171877625080073 0  0.6659898565672709 0.3986593551313873 0  7.363359022954956 0.3481046411219251 0  7.363359022954956 0.6518953588780749 0  5.487719392831826 0.3828237631077121 0  2.695054578344725 0.5809158475691247 0  2.944553877887707 0.5964065668438148 0  0.3515625 0.1201898858097106 0  5.5078125 1 0  4.5703125 1 0  5.031746201297604 0.882568359375 0  3.1640625 0 0  6.2109375 1 0  6.186845385763124 0.6336356480571081 0  4.1015625 1 0  6.810399074069772 0.6495574751396682 0  0.4740615253480797 0.2509287743856873 0  7.052064303830151 0.3684417917792242 0  6.195177069665382 0.1216488332168849 0  5.72300154718324 0.4112068202852788 0  3.879157465495092 0.6111892850691246 0  3.645760045247695 0.5809158475691247 0  6.868257400485771 0.3427840810237202 0  6.612030892260864 0.1521752713064389 0  6.615666885941117 0.3151079644097221 0  4.04296875 0.8633718902669071 0  1.183031453639096 0.8486801864185936 0  6.9140625 0 0  6.859079526500421 0.1398292786950638 0  6.808232443325651 0.7957411753922057 0  6.9140625 1 0  4.544955211100143 0.3675874343205077 0  1.0546875 1 0  6.122060236165557 0.3316791557072867 0  0.5859375 0 0  5.9765625 0 0  5.44921875 0.870984788733638 0  4.51171875 0.870984788733638 0  0.7608354256382215 0.2931261274224557 0  6.386875332239937 0.3156583003094978 0  6.985654756850997 0.6147408423643147 0  6.223797257919172 0.8535621912121121 0  5.936822413218736 0.1338376546337823 0  6.23933008800134 0.4095573603773768 0  0.5414022462152697 0.1305482677949959 0  6.331360438104348 0.1370086318183389 0  0.956404929269873 0.1374266563647954 0  1.2890625 1 0  0.691305981127761 0.6764829884281737 0  3.531251607241209 0.8678916320952239 0  2.59787442813022 
[...]
<PointData  Scalars="f_71633"> 
<DataArray  type="Float64"  Name="f_71633"  format="ascii">7.7884425205314534e-01  6.8095024531642512e-01  0.0000000000000000e+00  0.0000000000000000e+00  -7.7085475351569199e-01  -8.5820113917039254e-01  -9.0461550966588355e-01  -9.8741346488346593e-01  -1.0810511977282253e+00  -1.1360995637596782e+00  -1.1625908251398380e+00  -1.1744362660401131e+00  -1.1863626086859500e+00  -1.2249533322415154e+00  -1.3035851183280263e+00  -1.4171044729147102e+00  -1.4879684133048185e+00  -1.4465746968581057e+00  -1.1905774024784339e+00  -7.8148471654247997e-01  -2.1427414888842231e-01  4.0627614263688844e-01  9.8791035100215108e-01  1.4899742142511923e+00  1.8039526274319440e+00  1.8965517915490746e+00  1.7536233518642323e+00  1.4141151336526012e+00  9.1135110570745392e-01  3.7273367235300131e-01  -1.9681389002149402e-01  -7.2071407662815512e-01  -1.0999140491900230e+00  -1.3208423494643100e+00  -1.3671113832243187e+00  -1.2130987885262383e+00  -9.8543122888320034e-01  -7.8935497939364174e-01  -6.6486082565076843e-01  -5.9892760948075852e-01  -5.5326793384190875e-01  -5.4646000686405893e-01  -6.0770017301568779e-01  -6.6955879911479177e-01  2.4825316525842303e-01  2.7244672132175957e-01  4.1118714730286327e-01  -1.7674729409861906e-01  -1.3852776099475599e-02  2.8184615315294265e-01  3.9307549588063991e-02  3.6729629449925910e-01  -6.7522456995953717e-02  -1.5704571956574176e-01  6.5582338670566154e-01  -2.9287132409900352e-01  4.2775383728918071e-01  1.2610820514577017e-01  -2.2757546631976788e-01  -7.6802541516208211e-01  -5.6005261338989354e-01  2.9038995325154373e-03  -3.4311088459095229e-01  -1.2707328008298688e-01  0.0000000000000000e+00  -6.2802025778892689e-03  -1.2320099657142700e+00  7.6376034682412419e-01  6.0049398666970633e-01  -2.3235088314755842e-01  -3.6839503887286226e-02  2.1983048078324707e-01  -7.5684913553995270e-01  3.7811178530572670e-01  3.5633941506054062e-01  -2.2508713105782546e-01  -3.6530834274083823e-01  1.6867830095077940e-01  -1.9062974301781682e-01  -2.4021505882669505e-01  4.5009249971727461e-01  3.3965601582407640e-01  1.4575231585629736e-01  -1.7005200690412317e-01  8.0848793344924452e-01  -6.0980757742218485e-02  1.7945066789735975e-01  8.8309059445372762e-01  -4.3674728059790424e-01  -3.4502625729538738e-01  -2.1082696104862636e-01  -1.5789521458824057e-01  2.5361684754485642e-01  -1.3766580763786276e+00  2.5285283405204467e-01  -1.2456533063935307e+00  -6.9634014264509525e-01  -1.9341993702936489e-01  2.2830646663164800e-02  1.6617814826736402e-01  7.0217187378464763e-01  2.2382758439318421e-02  -2.5813476779985717e-01  4.2908795992884768e-01  -1.2224034408512794e+00  -6.2014339062812751e-01  1.5893564489269932e-01  1.7704478923183056e-01  2.1790823278732868e-01  -4.7160961605305707e-01  -1.1595420663510858e+00  2.6021611818354246e-01  2.5413657571461912e-01  -5.7490374589977511e-01  4.4599682959980382e-02  7.1752293122261135e-01  2.8103435280319367e-01  6.0313416753738969e-01  7.7870494128973511e-01  5.1160657605860180e-02  7.8422960323555002e-01  1.4895070953220954e-01  9.0088626395388371e-01  -4.1862820469514594e-01  1.9406958865301950e-02  3.9036514763076363e-01  -8.1238670564964255e-01  0.0000000000000000e+00  -1.0371674695198185e-02  0.0000000000000000e+00  -3.0032627184058752e-01  -4.8790944835841482e-01  2.5281935947373374e-01  3.3106341543606155e-01  -3.8348707401868382e-01  -6.8446217086702577e-01  -1.4844660998172887e+00  -2.1293260348659485e-01  3.1361478761179062e-01  -2.3819945829651645e-01  -7.5888715633755488e-01  3.7262399629387799e-01  -6.4168260024901461e-02  -2.4491596053465078e-01  -2.4215293428276147e-01  1.0463694426245787e-01  -1.1388804401300312e+00  -2.3261444099113904e-01  1.6138228340775473e-01  4.3150254552909634e-01  -1.9984150799270031e-01  5.8945716828737516e-01  -9.3912296794939576e-01  -7.0600688607904694e-02  2.7833398691806149e-01  3.4196399331560184e-01  2.2475426918388497e-02  -2.6805754861140021e-02  1.8608138550492700e-01  -3.2238691520495555e-01  2.8471693193291669e-01  -1.4395835324467612e-01  3.1065420316130396e-02  -2.2191174494447660e-01  -3.0935129911464337e-01  3.0414691140168976e-01  -3.4576938630432891e-01  4.6948523188374952e-01  -3.6349007012206752e-02  2.0582253135335177e-01  -1.7297985141763497e-01  7.6198466729375547e-01  1.3885792664412446e-02  8.3907275631030509e-02  3.4369726496913638e-01  3.2970541100709905e-01  6.6754588805965775e-01  2.7888360797288303e-01  -4.5280855392837362e-02  -5.9496339764618622e-01  1.5307610572388486e-01  1.4802227934790013e-01  -7.5235375292522966e-01  -8.1098551768901650e-01  -9.8177407091950455e-02  8.0042050340997728e-01  8.8568275527337881e-01  7.9064544324250952e-01  -6.8530492656236619e-01  1.2753220895455486e-01  -2.7480679845219252e-01  -3.7464631180148372e-01  -1.3171440461612553e-02  2.0255389304800367e-01  7.3936691849555480e-01  -4.6404719476942208e-01  -8.9384035355525748e-02  -5.2953332102872175e-03  1.1981381908066682e+00  -5.7965368473515400e-01  -5.8770160178470432e-01  -1.3905477572741602e+00  -1.0063267409652077e+00  3.1052853960298571e-01  1.1110111115514826e-01  7.8010785914129566e-01  -1.0749289195160568e-01  1.3531039093825895e-01  1.9371459609949768e-02  -3.7208587616433492e-01  4.8266988159945584e-01  -1.3380070490972484e+00  -5.0175459465584583e-02  -6.3814544943825025e-01  6.7305150532681590e-01  -1.6180920737034914e+00  -1.2223290991348930e-01  1.4006465832950701e-01  8.7931692480479225e-03  -5.4600263644779601e-01  -1.1449157391294109e+00  3.6934853571407400e-01  -1.3053463038295857e-01  -2.0169524823517626e-01  -1.7773652752454899e-01  3.6813310367281782e-01  3.5528388602575239e-01  6.8289487144393568e-01  6.8647136861248581e-01  -2.8484981531203563e-01  -2.0780305409289679e-01  1.4523752781526106e-01  -2.7769911803233044e-01  -1.8033471380297822e-01  -2.5491389914356433e-01  1.4474795853789749e-01  -4.2457195785612456e-01  1.3848289811385533e-01  3.2615945442211874e-01  3.9663652056274795e-01  -1.1977842387132189e+00  -2.1292154842940933e-01  2.5250864059329092e-01  -6.5810154212032165e-02  -1.4321800037350931e+00  3.7793724658649047e-01  4.2078807707786914e-01  -1.8727135639667167e-01  -1.6111720649658601e+00  -5.8769362354211974e-01  8.0048863196798925e-01  1.1120823823057389e-01  -1.1742042842272338e+00  -3.6613400338856089e-01  1.0755206723694424e-01  -3.7255586472431773e-01  -4.7611820665486942e-01  6.7214133873432544e-02  3.9102315807658793e-02  -3.7335706749751868e-01  2.5711230425267212e-01  -5.9238792379687355e-01  -2.2494200973275005e-01  -2.6783105202642399e-01  3.9233263538969237e-01  2.9067941922200524e-01  -5.8498929244821596e-01  -5.6783714640168759e-01  -3.3863325268360783e-01  -4.1515876184971129e-02  3.6814840589283560e-01  3.4304413208806554e-02  -3.3563652852138373e-02  -3.6145202600702803e-01  -8.6811352543354446e-03  -7.4300387358396303e-01  6.4331471148913977e-01  -1.7831286336893568e-01  1.3089557419662984e-01  1.0013874679462949e+00  -1.5891856801435769e-01  5.9020192504001534e-02  -2.8913164420967508e-01  -2.7680804001657988e-01  -1.9900863509874938e+00  6.4936253604355798e-01  2.6362565187439641e-01  4.1042215690821826e-01  1.4203373786539653e-01  5.5971350060921710e-01  1.3286866079735078e-02  -2.5904754955243064e-01  -4.8576020069165415e-01  -1.8239915294087075e-01  6.8589964352436816e-01  -1.4655389792850916e-02  2.3778672495207068e-01  -4.1596603806607424e-01  -1.1919303021085390e+00  1.2181341996850510e-01  -4.6189948147441432e-03  9.1098785550966857e-02  -1.2333361154266370e-01  -6.8608926414023685e-01  -2.5814180354364341e-01  2.1062388188289885e-02  2.0353398644016807e-02  1.6126994109276468e-01  3.2752932605662610e-01  -4.5314237957599296e-01  -6.5359367914743279e-03  -3.7431204216567857e-02  5.3850654238455264e-01  -1.5190349147999365e-02  6.4614909610494722e-02  3.7906798656184493e-01  4.5866488228394736e-01  -1.0785550881462647e-01  -8.2146324613496018e-05  -2.8680028062308915e-02  -1.3116528846609532e-01  -1.8131560048524592e-01  5.8282471852553897e-01  2.3084841981171808e-01  -1.2552473196326192e-01  -8.8681925526200333e-04  1.1613401710214910e+00  4.3105618228572612e-01  3.2418082181757413e-01  -5.9780877216372708e-01  4.7463830910651161e-01  5.2274421275527505e-01  8.7130487693845859e-01  8.1597667142205121e-01  -3.7962396547023425e-01  -3.3524785211280128e-01  -7.3330655125450928e-01  2.1598673495807955e-01  -3.7658322820472367e-01  2.5321465230712775e-01  6.0083830064964081e-02  8.0290188147916575e-01  -1.6696790302591705e-01  7.9362584258213587e-01  -1.3313576768910060e+00  7.7757329535820596e-01  4.2910039554591772e-01  -6.3524085100940386e-01  -1.1794557528649006e+00  -5.2728175645252129e-01  -5.5464607291165258e-01  -1.6305887863077745e-01  -1.8371974430768763e+00  -8.6305858511019226e-02  2.0751628145582302e-01  0.0000000000000000e+00  0.0000000000000000e+00  7.7824022809312621e-01  7.3384239416439223e-01  7.7608603534489251e-01  0.0000000000000000e+00  0.0000000000000000e+00  -4.2524062959712361e-01  3.0053965166628321e-01  1.4666845186558921e-02  -1.8823786745404965e+00  -4.0184799882950506e-01  1.8509250402788460e-03  6.7818081128198471e-01  -5.4740215816701215e-02  4.3802884932674735e-01  1.1438074253236190e-01  2.4383206848529401e-01  -8.0387521159561603e-01  -5.0902928371113632e-01  2.7433290491764645e-01  -1.4435899694940652e-01  -5.0612374393378678e-01  2.0904788348172634e-01  1.3193410742053069e-01  3.4254013123765092e-01  2.9036848563152728e-01  1.8364708535572719e-01  7.7876979951454783e-01  7.9461438025870290e-01  -4.3332633781625923e-01  1.4537978713934582e-02  6.8492436009974761e-02  -3.0347392606574780e-01  -1.4998678099540050e-01  -3.7806182292684692e-01  -3.5515608419702871e-01  -2.6703547995825222e-01  -2.1676019384540179e-01  -2.0768291382810788e-01  -4.1752295869113920e-01  -1.2895356850688082e+00  -5.5507848531417758e-01  3.8289592996652400e-01  -2.6015861835443399e-01  -7.4456495938701794e-01  -6.5573533037359813e-02  2.3245683167156556e-01  -1.2557379613649267e+00  -8.0457714910179792e-02  -9.3882916507489411e-01  -4.4592072254669729e-01  8.9121524095372634e-02  -4.9876527720963243e-01  -1.2935457286622851e+00  -3.4008251583809451e-01  4.0979731061083310e-02  1.0779701509262897e-01  4.1977041393158582e-01  4.4161472770085602e-01  -2.7274241837722708e-02  3.3104073071375922e-01  -2.6714821397811755e-01  -1.0117902675228285e+00  2.5594403824467794e-02  -8.8884603750200097e-01  2.3929260542710071e-01  1.5349181986192834e-01  -3.2837586400827429e-01  -4.6475224298602166e-02  2.0865058937739542e-01  -2.8076089943592042e-01  -1.9063966278793198e-01  -6.0726065944557428e-01  1.4974293989338387e-02  -5.8183681220904131e-04  -4.0232335436693806e-01  1.9715011989663142e-01  -9.0620059007008080e-01  -1.1809598112675290e+00  1.8563919420323774e-01  2.0807043562769473e-01  6.4089897484709590e-01  1.5236046059289654e-01  -1.5150637396099009e-01  2.5140591517707722e-01  7.3702036401006032e-01  -2.0163866035810421e-01  6.0467453084476291e-02  2.8984595439220046e-01  3.2070415979739963e-01  -5.4810447351464031e-01  3.2819912907862420e-01  4.0516677272208407e-01  1.1410920578048109e-01  7.9138786731448724e-02  4.9549386698720366e-01  3.9431902170116317e-01  -8.8644713386379220e-03  2.4572057532545585e-01  4.7519443657801275e-01  3.1113759569438060e-01  -1.8499546574878659e-01  3.5900127759506389e-01  2.0103439579428053e-01  -1.9567069955992408e-01  4.7321182230428765e-01  3.5551689150200272e-01  5.7761342326011156e-02  -4.7786268987512683e-02  -4.1113001975702439e-02  3.9636451873184464e-01  -3.9986588540276607e-01  1.6095576918305651e-01  1.0307740870312943e-01  -1.0481442811107693e-01  2.6775604242251155e-01  -1.7458594291890811e-01  2.5093031044108111e-01  1.7228798967541858e-01  7.9356094976571201e-01  1.6962683286718208e-01  -2.4346235468288666e-01  5.1175209272623778e-01  -8.7400074470145500e-02  2.3980078654350545e-01  1.2150971717930326e-01  5.4344219343847389e-01  -1.9748198288660168e-01  1.4669528028435405e-01  -3.6121605675696911e-01  -8.8882857622654388e-01  -1.3346127688960562e-02  -5.6534070207819684e-02  -4.7504759571237237e-01  -1.0530733283461940e-01  6.1140812582951398e-01  -5.7997576176973620e-01  -5.8183563360084123e-01  -4.9652367916195811e-01  3.3337029736932267e-01  5.1406245314620225e-01  -4.2100742105305444e-01  -9.2935673036061295e-01  -1.9849044193336218e-01  -2.6511391092958181e-01  2.1020504589831568e-01  2.3976152602471179e-01  3.3011932800413329e-01  -2.3573218772894412e-02  -2.6016562828100886e-01  3.8660554578670075e-01  -3.1077786909595545e-01  -8.1627474670171785e-01  3.5730525810144786e-01  -5.0064058045044180e-01  -1.1046653109757062e-01  3.6166113208609513e-01  -6.5762529481829174e-02  -8.4703820693980858e-01  1.8427013121571262e-01  -1.8282345533833269e-01  -1.8057119788965842e-01  -7.4906747246038463e-01  -1.3686951072840725e+00  -9.4974044610047459e-01  2.0590787555184156e-01  -7.7831418863099355e-02  -1.8391791208327237e+00  -2.9650237798819884e-01  -1.7895761098302440e-01  -3.5895381736105197e-01  -1.9371776658750588e+00  -3.1627429636433607e-01  -1.5576009107271313e-02  7.8424777876647878e-01  -5.8835934074505680e-01  -1.2273020870566226e-01  -2.6139618309005763e-01  -7.7360838354488093e-02  1.6590134889754718e-01  1.9554240637159959e-01  7.7378886651474532e-01  7.8041197822002961e-01  8.1997199940436694e-01  -1.8058908847681843e-01  -2.3522228267118137e-01  -2.5863539565811777e-01  8.7226628236594594e-01  7.8484907304542817e-01  7.7125941766918404e-01  -3.5902096029089052e-02  -6.7138549458664110e-01  -6.5673661452322774e-01  1.3786751442425943e-01  -8.1279826775194330e-01  -5.4267901420765041e-01  -5.3899983026973325e-02  1.0091847894380022e+00  9.9056879160780764e-01  -2.5171276326076997e-01  -5.5468675710254919e-02  -2.1912306862958253e-01  -3.3342441264389328e-01  -1.2357236357749632e+00  -6.9820292378385523e-02  -2.7738783274089397e-02  2.2163518945639524e-01  -5.5680307700246323e-01  -7.3543426616550570e-02  -1.6157025212574860e-01  5.2484043688860262e-02  -7.8531978491298782e-02  -1.4050893399709058e-01  1.4444922322554448e+00  7.8105388704909046e-02  -1.4352041691637227e-01  -1.1620310577773053e-02  7.0894729433358694e-01  7.0961671427290418e-01  7.5275978459778059e-01  1.8340931178845332e-02  -1.1564096062859083e-01  -5.7524630549000122e-01  5.0451204195123034e-01  6.7964796385245996e-01  4.3943237947909880e-01  -7.1296787537048334e-01  -8.6780018380398127e-01  -8.2252560911013683e-02  -5.5821692462392228e-02  -5.1323172539006157e-01  1.0556116950923584e+00  3.0018414699817120e-01  8.3482994079722628e-01  -1.3875904118324411e+00  -1.1982948788572390e+00  -1.5848841448175041e-01  -9.8843011297767269e-01  -2.9341554938302539e-01  -5.4353971784931887e-01  -2.9634365635333443e-01  8.0097253509860833e-01  7.5698166789446275e-01  1.2129958450161567e-01  3.9142355418644192e-01  -1.7073589065368218e+00  -2.6478338430839665e-01  -1.8125738638790206e-01  -2.7134326510862672e-01  -2.8480212631985830e-01  -4.7231713292245105e-03  -7.8675184157971340e-02  6.6946528174611042e-01  3.9172598343724420e-02  -3.4415427243813101e-01  -8.4591720302358209e-01  -1.0150598610374910e+00  4.7491788705323879e-01  2.2429149341360555e-01  6.1370215430241903e-01  -3.0332417052872096e-01  1.0434908285008957e+00  1.0024822038985561e-01  -1.4024720846717342e-01  -2.9940097380962460e-01  -7.2230411687184459e-01  2.3055797249894872e-01  -5.7565623814263966e-01  -1.3289763403780067e-01  3.8435714478576113e-03  8.3919159587695802e-02  -2.4011516377264995e-03  1.1080176125183046e-01  7.7807139074525511e-01  7.7944272022692207e-01  7.7742719482477063e-01  -7.2613779305878728e-02  -1.7844871885239091e-01  1.1728850811133371e-01  -2.1834311314821597e-01  6.8233120999266150e-01  -4.2731470580763198e-01  7.7829888190066743e-01  -7.6216025788874223e-02  -7.9267319033507411e-01  1.5860319793120994e-01  7.9006332381630420e-03  6.9114779164527651e-01  2.5790957879888682e-01  2.4953285680798942e-01  -2.2822448880864005e-01  -1.6588758795197189e-01  2.2466727981728962e-01  -8.5556728397696735e-02  -6.2445859413109421e-02  6.5496222655513947e-01  -5.7803417151173186e-01  1.1367892734896971e-01  6.6604899582364685e-01  2.8999176499701691e-02  8.7468805842737485e-01  1.7503789428900687e-01  -4.8915146465752346e-01  -2.1000427334346833e-01  -3.3240998604869798e-01  2.6588345241563660e-01  4.5741587392082866e-01  -7.0799654669071588e-01  -4.7344956280136075e-01  3.1370825285592381e-02  -4.7711267890374576e-01  -7.7534501391137756e-01  2.7715605271696658e-01  3.4250505097935591e-01  8.2995596907920732e-01  -3.2759950527587250e-01  1.5690462494203600e-01  3.2634006051055126e-01  -3.2561450646082996e-01  2.0465214568663168e-01  -1.4630890363185897e-01  -3.5400236632260285e-01  2.6619663820816886e-01  6.3580415221850622e-02  -2.9171901846328951e-01  -1.0375900215052281e-01  -3.6171220256378639e-01  -1.8573429518755974e-01  3.4426913989232499e-01  4.4168745032991852e-01  3.0415353988200933e-01  3.5234270505167820e-01  7.4584990478855681e-02  4.1882220959263791e-02  1.5662649878858403e-01  3.8375797954232704e-01  -9.9898513323725602e-01  -2.7383135482608523e-01  -8.1964321765052439e-01  8.0461638311848813e-02  1.8113062223631751e-01  -4.4200398499309146e-01  -9.0827152081999507e-01  -1.7376790692653188e-01  8.3007113674075539e-01  2.4766800056718502e-01  -5.8815545019080762e-01  -7.9917710017928600e-01  -2.7610525129501545e-01  -1.2149736950329010e-01  -3.1265398009228335e-01  -6.4112978398478404e-02  -5.6043242149903472e-01  -1.7810541955241503e-02  -1.3757988808279434e-01  -1.8129285716833490e-02  -6.6735507532382454e-01  -1.0794522750082993e+00  -1.3516813541739667e+00  -1.3193884260497295e+00  -1.5260671558735024e+00  -5.6863781036959982e-01  4.0313246094022515e-01  3.5240598805954376e-01  2.4966406878424707e-01  -1.5352099271354038e+00  -4.6327275731367712e-01  -1.8760653890927970e-01  -2.9905721062445489e-01  -1.5236384628953450e-01  3.7067382456824444e-01  3.3970082029705684e-01  4.7511963038898641e-01  -2.3279631960594707e-01  1.3396019001030399e-01  4.8997717897895685e-02  -4.8433952075444674e-02  9.3322038879927724e-02  1.1366557440341149e-01  2.7829800542334815e-01  3.9776286678736922e-01  2.0605970506727989e-01  8.2972413137025816e-02  -1.0702535096623676e-01  -8.9525708352046554e-03  3.9588751232424901e-01  -7.4269008820722460e-02  -5.2353402299361758e-02  2.7692217369252869e-01  4.7020993058945681e-01  5.0754407914602628e-01  3.6890432292413322e-01  8.0781148091306954e-01  3.0567203911041552e-01  1.4338039198972632e+00  -4.8257815405680221e-01  -5.4720480512115344e-01  -9.4103979144873035e-02  -8.9229054862550694e-01  -3.4651205323289519e-01  -1.1925028667868938e+00  1.2751069195571665e+00  -5.9711366896893925e-01  1.2831414390921938e+00  -1.1064436871466725e+00  -7.7086735259868522e-01  -9.9839637048130359e-01  -1.1756376348593212e+00  1.7012317620680140e+00  -5.4022117409467807e-01  1.7405152672476720e-01  -6.0293631202919318e-01  3.3650872283571547e-02  -8.8095230480916420e-01  -1.0858625060233882e+00  -4.8855756032754716e-01  9.0905020819908910e-01  -8.1077931514214119e-01  -7.5321601609790401e-01  1.6195497515361426e+00  8.9412146209915011e-01  -8.1809366624109847e-01  -7.1658144028607462e-01  -7.9044676862802699e-01  -8.7617974436580992e-01  -8.3264607736573770e-01  -9.3856333079536713e-01  -9.2674759295969500e-01  -8.5978587397568496e-01  -1.0367513821533736e+00  -9.6632037432915352e-01  -1.0785759778897546e+00  -1.1135080564984483e+00  -1.1149905036773557e+00  -1.1505729752379563e+00  -1.1422733402341052e+00  -1.1707395138162082e+00  -1.1810197008378127e+00  -1.1582247145935700e+00  -1.1781259008040499e+00  -1.1760843245900425e+00  -1.1735208402947839e+00  -1.2020049563887620e+00  -1.1796336918221562e+00  -1.2590055052126436e+00  -1.1882545632318020e+00  -1.2529045011221913e+00  -1.3569664131349954e+00  -1.2766365976154950e+00  -1.4431906771828249e+00  -1.3014082600895063e+00  -1.4438019352128182e+00  -1.1870785531527466e+00  -1.3276394914425651e+00  -1.2971820470824642e+