<?xml version="1.0"?>
<VTKFile type="UnstructuredGrid"  version="0.1"  >
<UnstructuredGrid>
<Piece  NumberOfPoints="4269" NumberOfCells="8234">
<Points>
<DataArray  type="Float64"  NumberOfComponents="3"  format="ascii">0 1 0  0 0 0  7.5 0 0  7.5 1 0  1.197537668119028 0.5812868930080463 0  1.2 0.55 0  1.197537668119028 0.5187131069919538 0  1.190211303259031 0.4881966011250105 0  1.178201304837674 0.4592019000520907 0  1.161803398874989 0.4324429495415054 0  1.141421356237309 0.4085786437626905 0  1.117557050458495 0.3881966011250105 0  1.090798099947909 0.3717986951623264 0  1.06180339887499 0.3597886967409693 0  1.031286893008046 0.3524623318809725 0  1 0.35 0  0.9687131069919538 0.3524623318809725 0  0.9381966011250105 0.3597886967409694 0  0.9092019000520906 0.3717986951623264 0  0.8824429495415054 0.3881966011250105 0  0.8585786437626904 0.4085786437626905 0  0.8381966011250105 0.4324429495415054 0  0.8217986951623264 0.4592019000520907 0  0.8097886967409692 0.4881966011250107 0  0.8024623318809725 0.5187131069919539 0  0.8 0.55 0  0.8024623318809725 0.5812868930080463 0  0.8097886967409693 0.6118033988749896 0  0.8217986951623264 0.6407980999479095 0  0.8381966011250105 0.6675570504584947 0  0.8585786437626906 0.6914213562373096 0  0.8824429495415054 0.7118033988749896 0  0.9092019000520907 0.7282013048376736 0  0.9381966011250106 0.7402113032590307 0  0.9687131069919539 0.7475376681190276 0  1 0.75 0  1.031286893008046 0.7475376681190276 0  1.06180339887499 0.7402113032590307 0  1.090798099947909 0.7282013048376736 0  1.117557050458495 0.7118033988749896 0  1.141421356237309 0.6914213562373095 0  1.161803398874989 0.6675570504584947 0  1.178201304837674 0.6407980999479094 0  1.190211303259031 0.6118033988749896 0  3.75 0 0  3.75 1 0  1.875 0 0  1.875 1 0  0.9375 0 0  0.9375 1 0  1.40625 1 0  5.625 1 0  5.625 0 0  2.8125 1 0  2.8125 0 0  4.6875 0 0  4.6875 1 0  6.5625 0 0  6.5625 1 0  5.15625 0.5 0  4.21875 0.5 0  2.34375 0.5 0  3.28125 0.5 0  6.09375 0.5 0  7.5 0.5 0  6.897916666666666 0.5 0  1.842708333333333 0.5 0  0 0.5 0  0.46875 0 0  5.625 0.5302734375 0  7.03125 0 0  6.09375 1 0  2.8125 0.4697265625 0  3.28125 0 0  2.34375 1 0  2.34375 0 0  3.75 0.4697265625 0  4.21875 0 0  4.21875 1 0  4.6875 0.5302734375 0  3.28125 1 0  5.15625 0 0  6.09375 0 0  5.15625 1 0  0.46875 1 0  1.40625 0 0  7.03125 1 0  0.3954638734376499 0.5975780249976004 0  6.495833333333334 0.4072265624999998 0  5.859375 0.25 0  4.905729166666666 0.26513671875 0  4.453125 0.25 0  3.531770833333333 0.73486328125 0  3.968229166666667 0.73486328125 0  2.594270833333333 0.73486328125 0  3.030729166666667 0.73486328125 0  6.328125 0.75 0  7.198958333333334 0.3125000000000002 0  7.198958333333334 0.6874999999999998 0  5.390625 0.25 0  0 0.25 0  2.109375 0.75 0  2.109375 0.25 0  1.51921323205749 0.3418883887525936 0  1.522346610178253 0.6811769608297746 0  5.375456746419271 0.75 0  4.921875 0.76513671875 0  4.437956746419271 0.75 0  3.984375 0.23486328125 0  3.500456746419271 0.25 0  2.578125 0.23486328125 0  3.046875 0.23486328125 0  5.874543253580729 0.75 0  6.642123189445656 0.6909095493086836 0  6.746354166666666 0.2391688368055553 0  0.3197109619185111 0.2850049285972083 0  6.328125 0 0  0.6313375889370429 0.2351325552547357 0  0 0.75 0  6.252283381534729 0.2693808819694041 0  0.234375 1 0  6.948437500000001 0.7543055555555555 0  0.5934018769555939 0.7694151657947577 0  1.858854166666667 0.75 0  1.858854166666667 0.25 0  1.640625 0 0  2.093229166666667 0.5 0  7.5 0.25 0  3.282227579752604 0.75 0  7.5 0.75 0  1.171875 0 0  1.303539853147731 0.2235426933121065 0  5.148177083333333 0.2575683593749998 0  2.351822916666667 0.742431640625 0  1.640625 1 0  4.202380413457425 0.7645435094236485 0  3.047822985053062 0.4701848030090332 0  2.577177014946938 0.4701848030090332 0  4.672792740482199 0.76513671875 0  4.922822985053062 0.5298151969909668 0  5.390593497949761 0.5156244924311331 0  5.610292740482199 0.76513671875 0  3.516602579752604 0.5 0  4.45496853898097 0.4865915990446593 0  5.85753146101903 0.4865915990446593 0  3.749511210123698 0.23486328125 0  3.983397420247396 0.4999999999999999 0  2.343497975411212 0.2346270081980111 0  4.219002024588788 0.2346270081980111 0  0.703125 0 0  2.8125 0.2343755075688669 0  3.046875 0 0  2.578125 0 0  3.515625 0 0  3.984375 0 0  4.453125 1 0  5.390625 1 0  2.109375 0 0  2.109375 1 0  5.625 0.2921402030705575 0  5.390625 0 0  7.265625 0 0  6.796875 0 0  6.328125 1 0  3.046875 1 0  2.578125 1 0  3.984375 1 0  3.515625 1 0  4.453125 0 0  4.921875 0 0  5.859375 0 0  0.703125 1 0  1.171875 1 0  7.265625 1 0  4.921875 1 0  5.859375 1 0  0.234375 0 0  6.796875 1 0  6.980310975276531 0.2285890127127066 0  5.149170481934885 0.772689292163473 0  3.274170481934884 0.2273107078365268 0  6.101334126790364 0.7722468376159667 0  4.678005340872584 0.3000799877067239 0  2.8125 0.6921051326382495 0  3.75 0.6921051326382495 0  0.3515624999999999 0.8134571721668546 0  0.4990405774417521 0.4070099317153735 0  0.1789273931360182 0.625 0  6.31239060814315 0.5298877111157968 0  6.456979773992304 0.1917956348713352 0  6.699870808919271 0.4406293402777773 0  1.337539480965883 0.7944303676599538 0  6.058675797563041 0.2019812164653516 0  0.8203125 0.1643029084422534 0  0.1480856513011711 0.375 0  1.090769294689562 0.1719186776982972 0  7.291088163206459 0.5 0  7.094502414936563 0.5197902199074071 0  0.6046212059042245 0.5730066483871106 0  1.707231580809486 0.6342709161352207 0  1.685961352504593 0.8193269193390785 0  1.374721602852827 0.4600373025865813 0  6.486415510043844 0.5916440776477192 0  1.5234375 0.1508863828685116 0  1.707925830421689 0.3657739208189008 0  0.1674513225045584 0.8278776664019765 0  7.138268756771176 0.1438183366439137 0  7.1484375 0.8616388888888887 0  7.328562530764119 0.819498462930605 0  4.101073710123698 0.3678637200736647 0  1.693878467219965 0.1911955120941053 0  1.577566745468488 0.5110082404081502 0  6.6796875 0.8653871806883484 0  6.498039504430512 0.825568433346395 0  0.7562556668576472 0.8333197949571929 0  4.101045914668806 0.6255195807449272 0  5.030745188395182 0.382829047309028 0  2.476364945868651 0.6095868094762166 0  2.729359843907322 0.8460525663191247 0  2.9296875 0.8740763101564099 0  3.163518307559356 0.6254622797994247 0  3.666859843907322 0.8460525663191247 0  3.8671875 0.8740763101564099 0  4.8046875 0.12592368984359 0  3.14936031382311 0.8606990583876851 0  2.4609375 0.8747622921397776 0  5.023140791101972 0.1392266772452574 0  0 0.125 0  0.1759922923594607 0.1727589856739889 0  4.5703125 0.125 0  7.327755777818006 0.1766156770456191 0  5.5078125 0.125 0  5.719712725029036 0.1460701015352787 0  4.327848962028002 0.3674169956512513 0  5.982681121544351 0.3692637923021713 0  3.398926289876302 0.6245417594909667 0  5.281756792511996 0.3827993367299961 0  2.226822645963271 0.6252438868405666 0  2.234390064317166 0.8676616584526566 0  5.2734375 0.125 0  1.96796875 0.382568359375 0  2.234651037971999 0.3674169956512511 0  1.984114583333333 0.132568359375 0  1.9921875 0.875 0  1.984114583333333 0.632568359375 0  5.748733794462357 0.8678269127183313 0  3.3984375 0.875456329184688 0  1.512925924995415 0.8582958012121853 0  1.359299372802969 0.6275861864990343 0  4.810521420483513 0.4041767793635395 0  0.2996213306116602 0.455339710363317 0  5.999933717403708 0.6388425470751088 0  5.250033449003657 0.6388713364551682 0  3.631676045992918 0.3525406652400928 0  4.3359375 0.8816499670325881 0  4.343577437052484 0.6116511299909198 0  3.375033449003656 0.3611286635448316 0  5.763152151652243 0.6249404690537395 0  4.549347848347757 0.6249404690537396 0  5.5004588702411 0.6403667365776566 0  5.976118394847484 0.8816230218343086 0  5.054722486865804 0.6338007028640954 0  3.164542163493752 0.3520519332736524 0  2.445407482032355 0.3672168403687257 0  4.8046875 0.882568359375 0  4.1015625 0.117431640625 0  2.4609375 0.117431640625 0  2.695556894938151 0.3520510350344335 0  2.929443105061849 0.3520510350344335 0  3.881979231817319 0.3670559016511187 0  3.8671875 0.117431640625 0  4.805389247695744 0.6470047893641744 0  3.399370721942191 0.1184066543556767 0  5.274370721942192 0.881593345644323 0  3.618253274934649 0.1316869186284249 0  2.6953125 0.1171877537844335 0  2.9296875 0.1171877537844335 0  2.21873344389451 0.125 0  4.3359375 0.1171877625080073 0  0.6659898565672709 0.3986593551313873 0  7.363359022954956 0.3481046411219251 0  7.363359022954956 0.6518953588780749 0  5.487719392831826 0.3828237631077121 0  2.695054578344725 0.5809158475691247 0  2.944553877887707 0.5964065668438148 0  0.3515625 0.1201898858097106 0  5.5078125 1 0  4.5703125 1 0  5.031746201297604 0.882568359375 0  3.1640625 0 0  6.2109375 1 0  6.186845385763124 0.6336356480571081 0  4.1015625 1 0  6.810399074069772 0.6495574751396682 0  0.4740615253480797 0.2509287743856873 0  7.052064303830151 0.3684417917792242 0  6.195177069665382 0.1216488332168849 0  5.72300154718324 0.4112068202852788 0  3.879157465495092 0.6111892850691246 0  3.645760045247695 0.5809158475691247 0  6.868257400485771 0.3427840810237202 0  6.612030892260864 0.1521752713064389 0  6.615666885941117 0.3151079644097221 0  4.04296875 0.8633718902669071 0  1.183031453639096 0.8486801864185936 0  6.9140625 0 0  6.859079526500421 0.1398292786950638 0  6.808232443325651 0.7957411753922057 0  6.9140625 1 0  4.544955211100143 0.3675874343205077 0  1.0546875 1 0  6.122060236165557 0.3316791557072867 0  0.5859375 0 0  5.9765625 0 0  5.44921875 0.870984788733638 0  4.51171875 0.870984788733638 0  0.7608354256382215 0.2931261274224557 0  6.386875332239937 0.3156583003094978 0  6.985654756850997 0.6147408423643147 0  6.223797257919172 0.8535621912121121 0  5.936822413218736 0.1338376546337823 0  6.23933008800134 0.4095573603773768 0  0.5414022462152697 0.1305482677949959 0  6.331360438104348 0.1370086318183389 0  0.956404929269873 0.1374266563647954 0  1.2890625 1 0  0.691305981127761 0.6764829884281737 0  3.531251607241209 0.8678916320952239 0  2.59787442813022 
[...]
<PointData  Scalars="f_71633"> 
<DataArray  type="Float64"  Name="f_71633"  format="ascii">1.1233731278791488e+00  9.2461723755506953e-01  0.0000000000000000e+00  0.0000000000000000e+00  -1.5825373759645900e-01  -4.3415376072816247e-01  -8.0690177745295921e-01  -1.0828702771026597e+00  -1.1838264513455128e+00  -1.2141681459282572e+00  -1.2356349718953878e+00  -1.2672042587113328e+00  -1.3176806878977625e+00  -1.3986526645267425e+00  -1.5285264415695556e+00  -1.6838969606240426e+00  -1.7561575483365259e+00  -1.6859984980207980e+00  -1.3632078114351294e+00  -8.9050109621805451e-01  -2.4406285517686918e-01  4.4713183980109250e-01  1.0909814945655467e+00  1.6590709051170709e+00  2.0326014517180959e+00  2.1846844347385765e+00  2.1040343382142890e+00  1.8304223052775455e+00  1.4046678902630689e+00  9.4076661476448042e-01  4.5618519117203887e-01  2.4679455735574965e-02  -2.7615227954974969e-01  -4.3587486051357494e-01  -4.3795212057691130e-01  -2.9311133683569685e-01  -1.0343706513192638e-01  4.2844128675190468e-02  1.2243158358720567e-01  1.5435018166563408e-01  1.7766327507078433e-01  1.4953843635014011e-01  7.0369228969099251e-02  -8.7466919263772935e-03  2.0783386936067633e-01  5.3787419317079543e-01  7.7359634855696813e-01  -2.1098370570872597e-02  8.5431665671835855e-02  8.3789042197330843e-01  5.9136380941142241e-01  5.2695957071063104e-01  3.1607383345395013e-01  4.3455235288661986e-01  8.9203446061386742e-03  -6.3201325733986680e-02  5.7215401270103372e-01  4.4339949883860991e-01  8.5456536623307253e-02  -5.2102750815350962e-01  -1.2528964255008690e+00  9.2732572667848817e-02  -1.3239100656107985e+00  9.2693459513033288e-02  0.0000000000000000e+00  9.2739648797795407e-02  -1.8844899593946240e-01  1.0565101387488105e+00  8.3099664204623769e-01  2.8778708285653043e-03  -5.0689843285171260e-02  4.2166475458230429e-01  1.5912582434994209e-02  6.8091981998726792e-01  5.0427373643258699e-01  3.0671906757116651e-01  3.1833934010020765e-01  5.2809261573809541e-01  -8.7262714717248696e-02  3.5170154229635048e-01  2.1727563312793843e-01  4.8533265433149342e-01  2.9876639384396264e-01  4.4510746799145580e-02  1.1628888501128045e+00  -8.2657196364997673e-03  6.3633330503536900e-01  1.1928092473569987e+00  -5.8238996881110762e-02  -3.1505964940549636e-01  -3.0630031378382161e-01  9.0070142122625430e-02  4.9001606726716762e-01  -5.9793054278819931e-02  6.1739219493595066e-01  -5.3069292003892421e-01  -5.7226456916942725e-01  -9.5737504437639884e-02  2.2920934560990580e-01  4.1307161673705228e-01  9.5313335324714910e-01  -5.2149892979057522e-01  3.8892044494498301e-01  2.7289917860890656e-01  -6.0501132989631667e-01  -7.0691533976639565e-01  4.5713195500435899e-01  6.5185447310400602e-02  4.3060541788017115e-01  2.4947743841775463e-01  -1.6004521906086519e-01  3.3770171317194497e-01  5.9459999432709532e-01  -1.4826077520121686e-01  8.8681263193077800e-02  9.7239265463330371e-01  4.8030553005637389e-01  8.1060155324201832e-01  1.1138624867309352e+00  3.6040211907063874e-01  1.1270193261016073e+00  6.7044594849897565e-01  1.2648818975356551e+00  -9.0820529386668264e-02  6.5000625002052104e-01  4.7832318578642424e-01  -1.6268879946026269e+00  0.0000000000000000e+00  -6.1138650136039008e-01  0.0000000000000000e+00  -2.0144232342227988e-01  -4.6214756481684871e-01  2.3260324044187453e-01  5.0131163442009374e-01  3.8845983720592653e-01  -6.8698935739871858e-01  -9.1491116512098869e-01  2.0900533080708875e-01  6.1213504197851487e-01  2.8230996934447733e-01  -7.6752396550716195e-01  5.8716040112274293e-01  2.3480475772804063e-01  -4.8037067682088562e-02  1.2126747563507785e-01  -4.6860954208278773e-02  -5.4997182923119481e-01  1.2324909926407637e-01  2.9538309574413801e-01  6.1031729714102245e-01  -3.0002272141291164e-01  7.9014097208601686e-01  -1.7956384598149538e-01  3.6451933594818814e-01  5.8217712249810216e-01  3.2287538845471808e-01  8.1900813961569896e-02  7.1362327031291328e-01  1.0801331062798693e-01  1.4015577382242200e-01  5.7339436301916757e-01  1.3435214135356674e-01  1.0189005024525331e-01  -7.2159568481094075e-02  -4.6817017779007590e-02  6.0821015905910958e-01  3.7807733032830310e-01  6.4024248826249541e-01  2.7701424665632346e-01  -8.1005276072235802e-02  2.3802973682484655e-03  1.1755546800384935e+00  5.6320808498707708e-01  6.5971770498046367e-01  5.0684567636222855e-01  6.2555629081905539e-01  9.1214506327526701e-01  6.0125445579436665e-01  -2.9509143413037320e-01  -2.7667274149892040e-01  4.2032856317157713e-01  2.4726071591986465e-01  -3.2646053849759944e-02  3.2172990448676020e-01  5.9682661772857604e-01  1.1424910130268047e+00  1.1446771645101772e+00  1.1071265550025924e+00  -5.1809900618977434e-01  4.5335306654754609e-01  1.1914903069184232e-02  3.3407390769889922e-01  1.9747588646042957e-01  3.3418638903382025e-01  1.0084502849216954e+00  -4.0090524761541785e-01  -6.7707232934616363e-02  5.1451772935653742e-02  1.5029200945012300e+00  -3.4514682569587507e-01  4.2379413801104049e-02  -1.8221938337591119e+00  -7.1352604981466505e-01  2.8568363482755399e-01  1.6192215852792807e-01  1.1212422405561990e+00  -3.2419938626363137e-02  7.4688015745794478e-01  -5.9663414956194649e-01  -1.4816820987280135e-01  6.9865152847966616e-01  -4.5616466779403214e-01  3.7577058871939772e-01  -3.7765380788278985e-01  1.1245551312849154e+00  -1.1078462904742028e+00  -1.3594834810501014e-01  5.2022654969370130e-01  5.5767060741461971e-01  1.5733433673327973e-01  -1.7768492069619628e+00  6.1148954366855446e-01  6.0460890696913794e-01  -1.7957551599182986e-01  -2.9035315396207390e-01  6.0522879188381351e-01  8.1265991593449147e-02  9.2691444174106530e-01  9.3301748327880230e-01  5.4198825900940863e-02  1.8967586702896055e-01  5.9499510601870076e-01  4.7939418401240691e-02  -7.7434373419093400e-02  -5.6543448523867765e-02  -3.5304365232748913e-01  -1.8552177851635848e-01  -7.5756358012235248e-01  3.1734696978024601e-01  6.5909072876302111e-01  -4.5234853517198109e-02  -3.2223443360215220e-01  7.6356343754746026e-01  -6.2693323566614945e-02  -8.9819951047211677e-01  6.4095922055029131e-01  4.1944411300380630e-01  4.7836372803444260e-01  -5.1390937418181537e-01  -9.8865977162352431e-02  1.0812519854701910e+00  3.9611611549615949e-01  -1.1236126275963483e+00  -3.2175695983068664e-01  -4.1971311389895058e-02  -7.9332835054965856e-01  5.2205994201359712e-02  4.9247323115355834e-01  1.8662334325893423e-01  -6.0222012827432314e-01  5.3950573450962824e-01  -1.5790444143432950e-01  -1.2589096388215096e-01  -2.4300810910025793e-02  5.8025285154838746e-01  6.8810428381967015e-01  1.8193489169948332e-01  -5.5327659467187408e-02  -1.0240295347038844e-01  3.5241117102555120e-02  3.7065494461035914e-01  5.7678721716182957e-01  5.1814269887039022e-01  -2.5366059534128238e-01  1.3094537130487280e-01  -7.2049975105496444e-01  4.5075356153871626e-01  5.2360825818416001e-01  5.0808009481741823e-01  1.2222757632091550e+00  3.3001696969425384e-02  -4.9820883437701885e-02  -4.0840690366308073e-02  3.5140806427262983e-01  -4.0211646138093288e-01  8.9267666927316036e-01  3.8501072379759332e-01  5.2034716879595788e-01  3.6128982898231771e-01  8.4676830131552006e-01  1.5719594526253289e-01  -2.1162085194795013e-01  -4.1782219071668384e-03  4.1053666488058949e-01  9.2613087756059809e-01  -2.5968196742134492e-01  4.4404240115898175e-01  -6.8376054047150026e-02  3.2426075248519926e-01  6.9305034798727583e-01  -1.5166692019894110e-01  4.0256281180133885e-01  2.2724828491208704e-01  7.8621121960123441e-02  3.7349395998470630e-01  -4.8029496414322186e-02  -5.7260341661504059e-02  6.4064936668192840e-01  8.3273082976104373e-01  -3.0202252710892726e-02  5.9859605412706474e-01  1.7583074234265050e-01  7.5546878271499840e-01  1.5229322771835349e-01  5.4597191248419365e-02  3.7666075889346023e-01  6.0650305362531021e-01  2.7027606411746480e-01  4.3484734544326736e-01  4.4993837278081338e-02  -1.5339152545937391e-02  4.6155536534488006e-02  8.0894129202098730e-01  4.7575117058456712e-01  -3.8292256394289896e-02  5.5600172061039954e-01  1.5307230814724706e+00  5.9220685913881976e-01  6.2446933463851695e-01  -5.8131541506359219e-01  7.8190753113389766e-01  6.7197818220102912e-01  1.2067127165120599e+00  1.1709683417020331e+00  3.3668805597239074e-02  -1.0871437747428392e-01  -3.7400238138970715e-01  7.8336163496288913e-01  -2.9444443493802586e-01  7.0609906319043980e-01  6.5902074093057961e-01  1.1830597573762345e+00  4.7821162256693389e-01  1.1262123814698051e+00  -1.2608485785626458e+00  1.0695967155902779e+00  5.0720338804721310e-01  2.6178709639708687e-02  -2.1181671694021773e-01  -4.6901460033442044e-01  3.3768277684617420e-01  4.4656860028185397e-01  -7.2108193271039789e-01  -1.2398148373992619e+00  1.4957586407350287e-01  0.0000000000000000e+00  0.0000000000000000e+00  1.1216207635963107e+00  1.0029440345031022e+00  1.0936139349957965e+00  0.0000000000000000e+00  0.0000000000000000e+00  -2.8389464559129596e-01  1.4534437531877527e-02  1.5806738013752678e-01  -7.4702453029889393e-01  -7.4360400603285104e-01  6.1088741479478614e-01  9.2241489437828694e-01  -3.4605450400588447e-02  6.2161604200656029e-01  1.6068196187566830e-01  5.7056044997771904e-01  -1.2557929349497006e+00  -1.5958571522076597e+00  4.9745858160679879e-01  -1.2673522040760176e-02  -2.8948006965478934e-01  3.5791845402943318e-01  -2.2683247369284132e-03  6.2462768293334048e-01  4.8776486874181776e-02  5.7296628812690466e-02  1.1222673014394595e+00  1.1873872901478315e+00  -1.5708787429138629e-01  4.5279034797114798e-01  4.1022681374532699e-01  8.5784225087161270e-02  1.6202683482946520e-01  -6.0270421988498180e-01  -1.5704278782160530e-01  1.1155948211778878e-01  2.5061773098712820e-01  -5.1277766086430621e-01  -2.2175148435386866e-01  -6.7117375605896179e-01  -9.2165596479082745e-01  6.3806373301903840e-01  -1.5341205788683827e+00  1.6183747826141356e-01  -2.6492614982231766e-01  5.6273307334037981e-01  -1.1492010964010393e+00  2.6791480979298266e-01  -1.4300189447457119e+00  -2.4163057814804961e-02  5.1083136053630840e-01  -6.2281566536761387e-03  -2.9453610673484121e-01  3.1120468600802553e-01  5.5758650181660430e-01  2.8012854703211670e-01  5.5546910567637808e-01  6.0886056154379553e-01  -1.7646156950169997e-01  3.9547845246914309e-01  -1.3072297675820191e-01  -7.9909749109558015e-01  -5.8328115981006283e-02  -8.9060977422555743e-01  1.2548016772758422e-01  -2.6168227632404448e-03  -2.1488826033682615e-01  7.3113589169928306e-01  4.6068894753820216e-01  3.2218166450076957e-01  2.9201434480961574e-01  3.7523210086848675e-02  3.9404553277540261e-01  2.4182423441304998e-01  -7.3311199942497837e-02  1.1819931647593380e-01  -4.5058830553142276e-01  -2.7423408017001855e-01  5.9737338354550629e-01  4.3774300247849218e-01  8.8313733038305009e-01  5.5480427307420532e-01  5.1070166553634055e-01  -3.1788834062754590e-01  6.5851517563503037e-01  -4.9852489804927136e-01  4.9344878282272231e-01  7.3128945465728046e-01  3.8606292575697015e-01  1.6857283862710609e-01  8.3023189463110769e-01  5.8802623693346456e-01  3.1838751304261247e-02  2.1215143301397663e-01  5.4997877303404363e-01  6.4307485701743772e-01  -6.7956319691250509e-03  7.9104564369450947e-01  6.7206012834291040e-01  3.2213841889134509e-01  1.1489875666653558e-01  5.9537583463894062e-01  6.0298850452507846e-01  7.7863350571565820e-02  3.0460675651856700e-01  5.9206129188825107e-01  -7.3460819622904738e-02  -1.0790771048480738e-01  5.9379570994420905e-01  6.2580178529023800e-01  2.0600178830672139e-01  5.6233479037184797e-01  4.3633153035734923e-01  1.1282221181220189e-01  2.4157854771045137e-01  -7.7386472526836905e-02  3.9693755390290608e-01  4.3446380795716477e-01  1.1403950890164229e+00  7.4656651409743258e-01  -1.3167837292044615e-01  7.6336395518651645e-01  5.3478825440812350e-01  5.1459161622101635e-01  3.2742966903620269e-01  1.0408761255382553e+00  -1.2252887388390001e-01  2.4672556062532680e-01  -1.3063645551326930e-01  -6.0806814437901824e-01  -1.2670669421958192e-01  -2.8593322176651320e-01  -9.2226499902355819e-02  -7.0861518745546997e-02  5.6886983904563992e-01  -3.3022042861702661e-01  4.8367400020913089e-02  -1.5947526355406510e-02  6.6640265812258292e-01  6.4927586959406480e-01  1.4491757899034660e-01  -9.0751715962859414e-01  4.1724081644001008e-02  -2.2375946648624004e-01  4.4432299813184439e-01  5.5083927821659440e-01  6.3089697000592360e-01  2.8381853917565203e-01  -2.6837904903272460e-02  6.6347844457859817e-01  3.8721453361165364e-01  -7.4232622720432584e-01  5.2385567360781904e-01  -1.3755421068787971e-01  -3.0694133022755971e-01  5.1612921757422514e-01  2.9245322837602095e-01  -8.0157764948558530e-01  5.0564878095706776e-02  -1.4134437968266136e-01  3.9369008220182689e-01  5.0895107026422248e-01  -7.9555166834580124e-02  1.7577406442746304e-01  6.8401365405723868e-01  5.2113001562171035e-01  -5.4586213869956179e-01  3.4900029083796696e-01  -7.5344324502144247e-02  8.8317415797877274e-02  -1.0956129143775064e+00  -1.9994508294218452e-01  4.3626201753541255e-01  1.1268175936509364e+00  -1.9219477118147160e-01  3.7758913351895967e-01  -2.0877006066872023e-01  3.0855898638775320e-01  4.4997258132246359e-01  -1.8349778588914956e-01  1.0781476576432474e+00  1.1070253670042174e+00  1.1352556175830606e+00  2.2578037267885809e-01  -6.7766686498204318e-02  -5.8574869482388527e-02  1.1566801888808533e+00  1.0511315219278952e+00  1.0058178919985075e+00  5.2708761179688057e-01  7.6027638531831129e-03  2.8989882884491130e-01  6.2318211440556859e-01  -5.5658182415790713e-01  1.0378059584170725e-01  3.6487704427969536e-01  1.2950044512961274e+00  1.3090463043873255e+00  4.2211976634890619e-01  5.1755239906109674e-01  -7.0647837449315729e-02  -3.1627936569689358e-01  -4.5087584047930046e-01  -9.7001710039112857e-02  9.1644247212120653e-02  3.7012463763221848e-01  -8.6677812924368436e-02  4.0110357555819903e-02  -6.9943891003582823e-02  2.3310674809516035e-01  -9.3327771782013749e-02  8.7031238308432721e-02  1.7068167112908492e+00  2.8265203806486550e-01  -4.7072778789985316e-02  -2.0261327148314137e-01  9.6345311228261754e-01  9.6271796995199943e-01  1.0186317584975269e+00  -1.3916281409703865e-01  -2.4757426295268292e-01  -1.4487030287006253e-01  6.8117052106115294e-01  9.2728800658406862e-01  4.9078285384455267e-01  -7.2921510440755621e-01  -7.1939519488136416e-01  2.4341885928645224e-02  1.6817304035872668e-01  -1.4431418047003505e-01  1.3952922632788349e+00  5.6142051154345363e-01  1.1631972494113754e+00  -8.0005545240389953e-01  -1.5514859521364672e+00  3.3101542863788175e-01  -6.7733249260652284e-01  -4.9042521329889255e-01  1.6283889994413372e-01  5.0138144360619796e-01  1.1486185500838271e+00  1.0406272975590016e+00  2.4187253657393401e-01  5.1050428842384044e-01  -1.6037460523883704e+00  1.0436209919595531e-01  1.8044806574247668e-01  1.9867839902335610e-01  7.3317057897214960e-02  1.0337618422491583e-01  5.1883482340425291e-01  9.1416858421684610e-01  1.9680581401927449e-01  -2.0339185151687167e-01  -2.4978688377942124e-01  -6.8844926520044225e-01  3.9192522329276064e-01  7.2620388255200374e-01  8.4812277240958422e-01  -2.1422006726831253e-01  1.3026958737455814e+00  4.2484477431952078e-01  6.6793070656007703e-02  6.4332842876725943e-02  -6.4169791731444881e-01  3.0063160179820114e-01  -2.6268428066196592e-01  3.8454130891651428e-01  -3.7782332530444690e-01  1.8171592954242699e-01  -1.0504583831490996e-01  5.7208662293051060e-01  1.2328190788127493e+00  1.1226835425771564e+00  1.1176311975535900e+00  1.1047611182866454e-01  -4.4070013130396463e-02  1.1986281832369314e-01  1.8841756150818106e-01  9.2671056735791923e-01  -1.9548224338648526e-01  1.1221766941727509e+00  -3.2775524934795242e-01  -4.7933733793415312e-01  7.3865449507383529e-01  2.1631709360163573e-01  9.3825285228154065e-01  8.1086625907579590e-01  4.3308401481806991e-01  -1.5581156836876850e-01  -4.6469671857939272e-02  5.8159563183486418e-01  -1.8489562471254814e-01  -5.4809549659703242e-02  8.9734573467494627e-01  -5.9300879885618565e-02  5.2736957884904945e-01  1.1182055480483692e+00  3.5403471104647816e-01  1.2738621015918559e+00  4.0114323673769131e-01  -4.0802086829828534e-02  -3.1205842607509965e-01  -1.2780525518257213e+00  5.6738781567181606e-01  6.3197638411453017e-01  -4.3433297126807469e-01  -7.4222939456669579e-01  3.2384066183576926e-01  1.1229307859177587e-01  3.6862233309557818e-01  1.3915886093799060e-01  5.0508837368137183e-01  9.8918702834361782e-01  -3.3012262613365861e-01  6.0488406919418436e-01  6.2245522519264007e-01  4.8410727078659671e-01  6.2652295307643069e-01  2.2818132997393825e-01  -2.0627796980510485e-01  6.8454260860830596e-01  2.0801696110038959e-01  2.3172481387796209e-01  2.0319900302842506e-01  4.5000873379657486e-01  -1.1577142175366265e-01  7.3749746031852470e-01  5.3957955915374556e-01  6.2688303090317932e-01  5.8901898277568210e-01  2.3886331920963608e-01  -2.3442141628256286e-01  -1.3103525822466197e-01  1.5604827432896040e-01  -1.5201431184810139e+00  -7.8137406487497271e-02  -1.9330565186316808e+00  3.8996048360388524e-01  5.6741506309879997e-01  2.1119310858079089e-02  -8.7461737381145280e-02  -3.6581554374642827e-01  1.1296213532487391e+00  3.1896885479216847e-01  -3.4235225921501478e-01  -5.1735826366800353e-01  -8.2425177034205599e-01  -1.8719660056904255e-01  -4.3555542099582435e-02  -7.7225651051862534e-02  -2.5342922284226066e-01  4.3538471184960917e-02  -2.2418764094050378e-01  6.4754038490191368e-01  -9.5875435624802863e-01  -2.0581044130150658e-01  -1.4754161409472795e+00  -7.7538063080048658e-01  -1.5970416931195677e-01  4.0017530235747256e-01  7.9415543580953518e-01  4.3675603604462210e-01  3.5917083908218107e-02  -5.3985838363064231e-01  -1.3394886763172276e+00  2.3998813844558816e-02  -1.7850433365293705e-01  3.9135578288870293e-02  5.8362466030755600e-01  6.0657180572140379e-01  3.9503803322764264e-01  7.0090570061803652e-03  -1.8782331962025695e-02  -6.8183250081376290e-01  -8.8955684700596394e-01  -8.1474988207892962e-01  -2.2281041461966516e-01  1.6536423995278376e-01  6.6458720197682120e-01  5.0208725835207246e-01  2.2287614338370357e-02  2.2658306243237589e-01  -1.7456023765778400e-01  6.0561258442160470e-01  8.6392826788385418e-02  -4.2424584287607547e-01  5.7950468671053829e-02  6.3737318191056980e-01  3.8858412100140649e-01  4.9026386380158316e-01  1.1783370478250126e+00  4.3098591332894487e-01  1.7530039710416212e+00  2.2783905094026585e-01  1.5385081363551639e-01  -4.8126529804761099e-02  -6.4537328234358940e-02  3.3657890356759307e-01  -1.2250175385881241e+00  1.6697751518112738e+00  1.5229110606247651e-01  1.4725560475132318e+00  -1.1905517215271304e+00  -8.3608653359724427e-01  -1.1370958054134968e+00  -1.2535435516481499e+00  2.0108812606647515e+00  1.0149144320342834e-01  7.4911591606096628e-01  1.6027722311699144e-01  7.3663275290277080e-02  -2.6894088082448253e-01  -1.2112147121548926e+00  2.1366421705722533e-01  1.3742769067757317e+00  -2.0849709773061748e-02  5.2954270225946676e-02  1.8407713336567078e+00  1.0221424957020402e+00  -2.7860791463078977e-01  -7.0916071197405575e-02  -2.0764136920950327e-01  -6.1492543051490556e-01  -3.4031914372240224e-01  -9.6177312745028076e-01  -9.3689586187753549e-01  -4.9735975947529171e-01  -1.1456886647030518e+00  -1.0570942933053602e+00  -1.1813853431740198e+00  -1.2010280721572244e+00  -1.1956090919798967e+00  -1.2245025813762649e+00  -1.2041448544480666e+00  -1.2497244684040043e+00  -1.2377513995372234e+00  -1.2132424090373755e+00  -1.2899194781011474e+00  -1.2499191778963745e+00  -1.2964495424867644e+00  -1.3530289699367519e+00  -1.3152537021077202e+00  -1.4581242308290217e+00  -1.3380212119975112e+00  -1.4540276089299715e+00  -1.6041834133183386e+00  -1.4866229091093501e+00  -1.7046933839359191e+00  -1.5169645469826276e+00  -1.6864567429218678e+00  -1.3496092700017179e+00  -1.5475303713933912e+00  -1.4969986512591549e+00  -1.2751252164073166e+00  -1.0761952349469204e+00  -5.7269338492437560e-01  -1.1885141005352755e+00  -6.2154180585518637e-01  -5.306694