<?xml version="1.0"?>
<VTKFile type="UnstructuredGrid"  version="0.1"  >
<UnstructuredGrid>
<Piece  NumberOfPoints="4269" NumberOfCells="8234">
<Points>
<DataArray  type="Float64"  NumberOfComponents="3"  format="ascii">0 1 0  0 0 0  7.5 0 0  7.5 1 0  1.197537668119028 0.5812868930080463 0  1.2 0.55 0  1.197537668119028 0.5187131069919538 0  1.190211303259031 0.4881966011250105 0  1.178201304837674 0.4592019000520907 0  1.161803398874989 0.4324429495415054 0  1.141421356237309 0.4085786437626905 0  1.117557050458495 0.3881966011250105 0  1.090798099947909 0.3717986951623264 0  1.06180339887499 0.3597886967409693 0  1.031286893008046 0.3524623318809725 0  1 0.35 0  0.9687131069919538 0.3524623318809725 0  0.9381966011250105 0.3597886967409694 0  0.9092019000520906 0.3717986951623264 0  0.8824429495415054 0.3881966011250105 0  0.8585786437626904 0.4085786437626905 0  0.8381966011250105 0.4324429495415054 0  0.8217986951623264 0.4592019000520907 0  0.8097886967409692 0.4881966011250107 0  0.8024623318809725 0.5187131069919539 0  0.8 0.55 0  0.8024623318809725 0.5812868930080463 0  0.8097886967409693 0.6118033988749896 0  0.8217986951623264 0.6407980999479095 0  0.8381966011250105 0.6675570504584947 0  0.8585786437626906 0.6914213562373096 0  0.8824429495415054 0.7118033988749896 0  0.9092019000520907 0.7282013048376736 0  0.9381966011250106 0.7402113032590307 0  0.9687131069919539 0.7475376681190276 0  1 0.75 0  1.031286893008046 0.7475376681190276 0  1.06180339887499 0.7402113032590307 0  1.090798099947909 0.7282013048376736 0  1.117557050458495 0.7118033988749896 0  1.141421356237309 0.6914213562373095 0  1.161803398874989 0.6675570504584947 0  1.178201304837674 0.6407980999479094 0  1.190211303259031 0.6118033988749896 0  3.75 0 0  3.75 1 0  1.875 0 0  1.875 1 0  0.9375 0 0  0.9375 1 0  1.40625 1 0  5.625 1 0  5.625 0 0  2.8125 1 0  2.8125 0 0  4.6875 0 0  4.6875 1 0  6.5625 0 0  6.5625 1 0  5.15625 0.5 0  4.21875 0.5 0  2.34375 0.5 0  3.28125 0.5 0  6.09375 0.5 0  7.5 0.5 0  6.897916666666666 0.5 0  1.842708333333333 0.5 0  0 0.5 0  0.46875 0 0  5.625 0.5302734375 0  7.03125 0 0  6.09375 1 0  2.8125 0.4697265625 0  3.28125 0 0  2.34375 1 0  2.34375 0 0  3.75 0.4697265625 0  4.21875 0 0  4.21875 1 0  4.6875 0.5302734375 0  3.28125 1 0  5.15625 0 0  6.09375 0 0  5.15625 1 0  0.46875 1 0  1.40625 0 0  7.03125 1 0  0.3954638734376499 0.5975780249976004 0  6.495833333333334 0.4072265624999998 0  5.859375 0.25 0  4.905729166666666 0.26513671875 0  4.453125 0.25 0  3.531770833333333 0.73486328125 0  3.968229166666667 0.73486328125 0  2.594270833333333 0.73486328125 0  3.030729166666667 0.73486328125 0  6.328125 0.75 0  7.198958333333334 0.3125000000000002 0  7.198958333333334 0.6874999999999998 0  5.390625 0.25 0  0 0.25 0  2.109375 0.75 0  2.109375 0.25 0  1.51921323205749 0.3418883887525936 0  1.522346610178253 0.6811769608297746 0  5.375456746419271 0.75 0  4.921875 0.76513671875 0  4.437956746419271 0.75 0  3.984375 0.23486328125 0  3.500456746419271 0.25 0  2.578125 0.23486328125 0  3.046875 0.23486328125 0  5.874543253580729 0.75 0  6.642123189445656 0.6909095493086836 0  6.746354166666666 0.2391688368055553 0  0.3197109619185111 0.2850049285972083 0  6.328125 0 0  0.6313375889370429 0.2351325552547357 0  0 0.75 0  6.252283381534729 0.2693808819694041 0  0.234375 1 0  6.948437500000001 0.7543055555555555 0  0.5934018769555939 0.7694151657947577 0  1.858854166666667 0.75 0  1.858854166666667 0.25 0  1.640625 0 0  2.093229166666667 0.5 0  7.5 0.25 0  3.282227579752604 0.75 0  7.5 0.75 0  1.171875 0 0  1.303539853147731 0.2235426933121065 0  5.148177083333333 0.2575683593749998 0  2.351822916666667 0.742431640625 0  1.640625 1 0  4.202380413457425 0.7645435094236485 0  3.047822985053062 0.4701848030090332 0  2.577177014946938 0.4701848030090332 0  4.672792740482199 0.76513671875 0  4.922822985053062 0.5298151969909668 0  5.390593497949761 0.5156244924311331 0  5.610292740482199 0.76513671875 0  3.516602579752604 0.5 0  4.45496853898097 0.4865915990446593 0  5.85753146101903 0.4865915990446593 0  3.749511210123698 0.23486328125 0  3.983397420247396 0.4999999999999999 0  2.343497975411212 0.2346270081980111 0  4.219002024588788 0.2346270081980111 0  0.703125 0 0  2.8125 0.2343755075688669 0  3.046875 0 0  2.578125 0 0  3.515625 0 0  3.984375 0 0  4.453125 1 0  5.390625 1 0  2.109375 0 0  2.109375 1 0  5.625 0.2921402030705575 0  5.390625 0 0  7.265625 0 0  6.796875 0 0  6.328125 1 0  3.046875 1 0  2.578125 1 0  3.984375 1 0  3.515625 1 0  4.453125 0 0  4.921875 0 0  5.859375 0 0  0.703125 1 0  1.171875 1 0  7.265625 1 0  4.921875 1 0  5.859375 1 0  0.234375 0 0  6.796875 1 0  6.980310975276531 0.2285890127127066 0  5.149170481934885 0.772689292163473 0  3.274170481934884 0.2273107078365268 0  6.101334126790364 0.7722468376159667 0  4.678005340872584 0.3000799877067239 0  2.8125 0.6921051326382495 0  3.75 0.6921051326382495 0  0.3515624999999999 0.8134571721668546 0  0.4990405774417521 0.4070099317153735 0  0.1789273931360182 0.625 0  6.31239060814315 0.5298877111157968 0  6.456979773992304 0.1917956348713352 0  6.699870808919271 0.4406293402777773 0  1.337539480965883 0.7944303676599538 0  6.058675797563041 0.2019812164653516 0  0.8203125 0.1643029084422534 0  0.1480856513011711 0.375 0  1.090769294689562 0.1719186776982972 0  7.291088163206459 0.5 0  7.094502414936563 0.5197902199074071 0  0.6046212059042245 0.5730066483871106 0  1.707231580809486 0.6342709161352207 0  1.685961352504593 0.8193269193390785 0  1.374721602852827 0.4600373025865813 0  6.486415510043844 0.5916440776477192 0  1.5234375 0.1508863828685116 0  1.707925830421689 0.3657739208189008 0  0.1674513225045584 0.8278776664019765 0  7.138268756771176 0.1438183366439137 0  7.1484375 0.8616388888888887 0  7.328562530764119 0.819498462930605 0  4.101073710123698 0.3678637200736647 0  1.693878467219965 0.1911955120941053 0  1.577566745468488 0.5110082404081502 0  6.6796875 0.8653871806883484 0  6.498039504430512 0.825568433346395 0  0.7562556668576472 0.8333197949571929 0  4.101045914668806 0.6255195807449272 0  5.030745188395182 0.382829047309028 0  2.476364945868651 0.6095868094762166 0  2.729359843907322 0.8460525663191247 0  2.9296875 0.8740763101564099 0  3.163518307559356 0.6254622797994247 0  3.666859843907322 0.8460525663191247 0  3.8671875 0.8740763101564099 0  4.8046875 0.12592368984359 0  3.14936031382311 0.8606990583876851 0  2.4609375 0.8747622921397776 0  5.023140791101972 0.1392266772452574 0  0 0.125 0  0.1759922923594607 0.1727589856739889 0  4.5703125 0.125 0  7.327755777818006 0.1766156770456191 0  5.5078125 0.125 0  5.719712725029036 0.1460701015352787 0  4.327848962028002 0.3674169956512513 0  5.982681121544351 0.3692637923021713 0  3.398926289876302 0.6245417594909667 0  5.281756792511996 0.3827993367299961 0  2.226822645963271 0.6252438868405666 0  2.234390064317166 0.8676616584526566 0  5.2734375 0.125 0  1.96796875 0.382568359375 0  2.234651037971999 0.3674169956512511 0  1.984114583333333 0.132568359375 0  1.9921875 0.875 0  1.984114583333333 0.632568359375 0  5.748733794462357 0.8678269127183313 0  3.3984375 0.875456329184688 0  1.512925924995415 0.8582958012121853 0  1.359299372802969 0.6275861864990343 0  4.810521420483513 0.4041767793635395 0  0.2996213306116602 0.455339710363317 0  5.999933717403708 0.6388425470751088 0  5.250033449003657 0.6388713364551682 0  3.631676045992918 0.3525406652400928 0  4.3359375 0.8816499670325881 0  4.343577437052484 0.6116511299909198 0  3.375033449003656 0.3611286635448316 0  5.763152151652243 0.6249404690537395 0  4.549347848347757 0.6249404690537396 0  5.5004588702411 0.6403667365776566 0  5.976118394847484 0.8816230218343086 0  5.054722486865804 0.6338007028640954 0  3.164542163493752 0.3520519332736524 0  2.445407482032355 0.3672168403687257 0  4.8046875 0.882568359375 0  4.1015625 0.117431640625 0  2.4609375 0.117431640625 0  2.695556894938151 0.3520510350344335 0  2.929443105061849 0.3520510350344335 0  3.881979231817319 0.3670559016511187 0  3.8671875 0.117431640625 0  4.805389247695744 0.6470047893641744 0  3.399370721942191 0.1184066543556767 0  5.274370721942192 0.881593345644323 0  3.618253274934649 0.1316869186284249 0  2.6953125 0.1171877537844335 0  2.9296875 0.1171877537844335 0  2.21873344389451 0.125 0  4.3359375 0.1171877625080073 0  0.6659898565672709 0.3986593551313873 0  7.363359022954956 0.3481046411219251 0  7.363359022954956 0.6518953588780749 0  5.487719392831826 0.3828237631077121 0  2.695054578344725 0.5809158475691247 0  2.944553877887707 0.5964065668438148 0  0.3515625 0.1201898858097106 0  5.5078125 1 0  4.5703125 1 0  5.031746201297604 0.882568359375 0  3.1640625 0 0  6.2109375 1 0  6.186845385763124 0.6336356480571081 0  4.1015625 1 0  6.810399074069772 0.6495574751396682 0  0.4740615253480797 0.2509287743856873 0  7.052064303830151 0.3684417917792242 0  6.195177069665382 0.1216488332168849 0  5.72300154718324 0.4112068202852788 0  3.879157465495092 0.6111892850691246 0  3.645760045247695 0.5809158475691247 0  6.868257400485771 0.3427840810237202 0  6.612030892260864 0.1521752713064389 0  6.615666885941117 0.3151079644097221 0  4.04296875 0.8633718902669071 0  1.183031453639096 0.8486801864185936 0  6.9140625 0 0  6.859079526500421 0.1398292786950638 0  6.808232443325651 0.7957411753922057 0  6.9140625 1 0  4.544955211100143 0.3675874343205077 0  1.0546875 1 0  6.122060236165557 0.3316791557072867 0  0.5859375 0 0  5.9765625 0 0  5.44921875 0.870984788733638 0  4.51171875 0.870984788733638 0  0.7608354256382215 0.2931261274224557 0  6.386875332239937 0.3156583003094978 0  6.985654756850997 0.6147408423643147 0  6.223797257919172 0.8535621912121121 0  5.936822413218736 0.1338376546337823 0  6.23933008800134 0.4095573603773768 0  0.5414022462152697 0.1305482677949959 0  6.331360438104348 0.1370086318183389 0  0.956404929269873 0.1374266563647954 0  1.2890625 1 0  0.691305981127761 0.6764829884281737 0  3.531251607241209 0.8678916320952239 0  2.59787442813022 
[...]
<PointData  Vectors="f_71627"> 
<DataArray  type="Float64"  Name="f_71627"  NumberOfComponents="3" format="ascii">0.0000000000000000e+00 0.0000000000000000e+00 0.0000000000000000e+00  0.0000000000000000e+00 0.0000000000000000e+00 0.0000000000000000e+00  0.0000000000000000e+00 0.0000000000000000e+00 0.0000000000000000e+00  0.0000000000000000e+00 0.0000000000000000e+00 0.0000000000000000e+00  0.0000000000000000e+00 0.0000000000000000e+00 0.0000000000000000e+00  0.0000000000000000e+00 0.0000000000000000e+00 0.0000000000000000e+00  0.0000000000000000e+00 0.0000000000000000e+00 0.0000000000000000e+00  0.0000000000000000e+00 0.0000000000000000e+00 0.0000000000000000e+00  0.0000000000000000e+00 0.0000000000000000e+00 0.0000000000000000e+00  0.0000000000000000e+00 0.0000000000000000e+00 0.0000000000000000e+00  0.0000000000000000e+00 0.0000000000000000e+00 0.0000000000000000e+00  0.0000000000000000e+00 0.0000000000000000e+00 0.0000000000000000e+00  0.0000000000000000e+00 0.0000000000000000e+00 0.0000000000000000e+00  0.0000000000000000e+00 0.0000000000000000e+00 0.0000000000000000e+00  0.0000000000000000e+00 0.0000000000000000e+00 0.0000000000000000e+00  0.0000000000000000e+00 0.0000000000000000e+00 0.0000000000000000e+00  0.0000000000000000e+00 0.0000000000000000e+00 0.0000000000000000e+00  0.0000000000000000e+00 0.0000000000000000e+00 0.0000000000000000e+00  0.0000000000000000e+00 0.0000000000000000e+00 0.0000000000000000e+00  0.0000000000000000e+00 0.0000000000000000e+00 0.0000000000000000e+00  0.0000000000000000e+00 0.0000000000000000e+00 0.0000000000000000e+00  0.0000000000000000e+00 0.0000000000000000e+00 0.0000000000000000e+00  0.0000000000000000e+00 0.0000000000000000e+00 0.0000000000000000e+00  0.0000000000000000e+00 0.0000000000000000e+00 0.0000000000000000e+00  0.0000000000000000e+00 0.0000000000000000e+00 0.0000000000000000e+00  0.0000000000000000e+00 0.0000000000000000e+00 0.0000000000000000e+00  0.0000000000000000e+00 0.0000000000000000e+00 0.0000000000000000e+00  0.0000000000000000e+00 0.0000000000000000e+00 0.0000000000000000e+00  0.0000000000000000e+00 0.0000000000000000e+00 0.0000000000000000e+00  0.0000000000000000e+00 0.0000000000000000e+00 0.0000000000000000e+00  0.0000000000000000e+00 0.0000000000000000e+00 0.0000000000000000e+00  0.0000000000000000e+00 0.0000000000000000e+00 0.0000000000000000e+00  0.0000000000000000e+00 0.0000000000000000e+00 0.0000000000000000e+00  0.0000000000000000e+00 0.0000000000000000e+00 0.0000000000000000e+00  0.0000000000000000e+00 0.0000000000000000e+00 0.0000000000000000e+00  0.0000000000000000e+00 0.0000000000000000e+00 0.0000000000000000e+00  0.0000000000000000e+00 0.0000000000000000e+00 0.0000000000000000e+00  0.0000000000000000e+00 0.0000000000000000e+00 0.0000000000000000e+00  0.0000000000000000e+00 0.0000000000000000e+00 0.0000000000000000e+00  0.0000000000000000e+00 0.0000000000000000e+00 0.0000000000000000e+00  0.0000000000000000e+00 0.0000000000000000e+00 0.0000000000000000e+00  0.0000000000000000e+00 0.0000000000000000e+00 0.0000000000000000e+00  0.0000000000000000e+00 0.0000000000000000e+00 0.0000000000000000e+00  0.0000000000000000e+00 0.0000000000000000e+00 0.0000000000000000e+00  0.0000000000000000e+00 0.0000000000000000e+00 0.0000000000000000e+00  0.0000000000000000e+00 0.0000000000000000e+00 0.0000000000000000e+00  0.0000000000000000e+00 0.0000000000000000e+00 0.0000000000000000e+00  0.0000000000000000e+00 0.0000000000000000e+00 0.0000000000000000e+00  0.0000000000000000e+00 0.0000000000000000e+00 0.0000000000000000e+00  0.0000000000000000e+00 0.0000000000000000e+00 0.0000000000000000e+00  0.0000000000000000e+00 0.0000000000000000e+00 0.0000000000000000e+00  0.0000000000000000e+00 0.0000000000000000e+00 0.0000000000000000e+00  0.0000000000000000e+00 0.0000000000000000e+00 0.0000000000000000e+00  0.0000000000000000e+00 0.0000000000000000e+00 0.0000000000000000e+00  0.0000000000000000e+00 0.0000000000000000e+00 0.0000000000000000e+00  0.0000000000000000e+00 0.0000000000000000e+00 0.0000000000000000e+00  0.0000000000000000e+00 0.0000000000000000e+00 0.0000000000000000e+00  0.0000000000000000e+00 0.0000000000000000e+00 0.0000000000000000e+00  0.0000000000000000e+00 0.0000000000000000e+00 0.0000000000000000e+00  9.5710495731700984e-01 8.0072730573902784e-04 0.0000000000000000e+00  1.0226073250451697e+00 2.0512481145093485e-03 0.0000000000000000e+00  1.0315697922751241e+00 3.8973708059074031e-03 0.0000000000000000e+00  1.0140613439104393e+00 -2.6670578649070496e-03 0.0000000000000000e+00  9.8976148202491721e-01 1.5775531523639491e-03 0.0000000000000000e+00  1.5000002212189740e+00 0.0000000000000000e+00 0.0000000000000000e+00  1.0884143593203079e+00 2.7089115782978025e-03 0.0000000000000000e+00  1.0212026778616052e+00 1.4708124446357910e-02 0.0000000000000000e+00  1.5000002212189740e+00 0.0000000000000000e+00 0.0000000000000000e+00  0.0000000000000000e+00 0.0000000000000000e+00 0.0000000000000000e+00  1.0276985015691231e+00 1.3942861427078900e-03 0.0000000000000000e+00  0.0000000000000000e+00 0.0000000000000000e+00 0.0000000000000000e+00  0.0000000000000000e+00 0.0000000000000000e+00 0.0000000000000000e+00  1.0345609446204629e+00 4.0731613274898998e-04 0.0000000000000000e+00  0.0000000000000000e+00 0.0000000000000000e+00 0.0000000000000000e+00  0.0000000000000000e+00 0.0000000000000000e+00 0.0000000000000000e+00  0.0000000000000000e+00 0.0000000000000000e+00 0.0000000000000000e+00  1.0187895252895744e+00 -1.5321288236811903e-03 0.0000000000000000e+00  0.0000000000000000e+00 0.0000000000000000e+00 0.0000000000000000e+00  0.0000000000000000e+00 0.0000000000000000e+00 0.0000000000000000e+00  1.0177829964531229e+00 -1.2773864937416211e-03 0.0000000000000000e+00  0.0000000000000000e+00 0.0000000000000000e+00 0.0000000000000000e+00  0.0000000000000000e+00 0.0000000000000000e+00 0.0000000000000000e+00  0.0000000000000000e+00 0.0000000000000000e+00 0.0000000000000000e+00  0.0000000000000000e+00 0.0000000000000000e+00 0.0000000000000000e+00  0.0000000000000000e+00 0.0000000000000000e+00 0.0000000000000000e+00  0.0000000000000000e+00 0.0000000000000000e+00 0.0000000000000000e+00  0.0000000000000000e+00 0.0000000000000000e+00 0.0000000000000000e+00  1.0809561876724532e+00 7.8422008227748474e-02 0.0000000000000000e+00  1.0398952733017359e+00 2.3271101268349109e-03 0.0000000000000000e+00  1.0161038285112860e+00 8.3700804314602913e-03 0.0000000000000000e+00  9.3494188415593205e-01 1.5756556173899258e-02 0.0000000000000000e+00  9.3189217677792890e-01 1.1961525178127057e-02 0.0000000000000000e+00  9.6955973570709053e-01 -8.6309093539384315e-03 0.0000000000000000e+00  9.5205651712873640e-01 1.5252876047161482e-03 0.0000000000000000e+00  1.0323623117620584e+00 -2.1528112276214894e-04 0.0000000000000000e+00  1.0329491598726541e+00 9.6693959252923205e-04 0.0000000000000000e+00  1.0236218179960679e+00 1.3115220972886109e-02 0.0000000000000000e+00  7.7249645396711319e-01 8.5120215382329702e-03 0.0000000000000000e+00  9.1077671706377605e-01 -9.3328596088963019e-04 0.0000000000000000e+00  1.0215265284577884e+00 6.8101803133309487e-03 0.0000000000000000e+00  1.1250001659142304e+00 0.0000000000000000e+00 0.0000000000000000e+00  1.0274175380166406e+00 3.1895958111238208e-03 0.0000000000000000e+00  1.0335249810166485e+00 6.1654861532006063e-03 0.0000000000000000e+00  1.0238067071632793e+00 1.1840762606985704e-01 0.0000000000000000e+00  9.6739929872039321e-01 -6.0456051918922525e-02 0.0000000000000000e+00  9.7524615729006114e-01 5.1224565758323177e-03 0.0000000000000000e+00  9.8691730480667983e-01 -3.0198203722328159e-02 0.0000000000000000e+00  1.0646643827208728e+00 -5.8219135040755597e-03 0.0000000000000000e+00  1.0447237062515302e+00 2.3001567053109025e-02 0.0000000000000000e+00  9.3757937758282728e-01 -2.1234229538092137e-02 0.0000000000000000e+00  1.0344857655749882e+00 7.4274235067507493e-04 0.0000000000000000e+00  1.0311043928689947e+00 -1.5376003017312401e-03 0.0000000000000000e+00  1.0468182313538026e+00 7.8404532058366123e-03 0.0000000000000000e+00  9.6386531477514525e-01 -6.3170400041208021e-03 0.0000000000000000e+00  1.0427685014667063e+00 1.0479794738761129e-02 0.0000000000000000e+00  1.0322411896722286e+00 -2.6057658401203582e-01 0.0000000000000000e+00  0.0000000000000000e+00 0.0000000000000000e+00 0.0000000000000000e+00  1.1343544672138133e+00 -2.1225365305925992e-01 0.0000000000000000e+00  1.1250001659142304e+00 0.0000000000000000e+00 0.0000000000000000e+00  9.9109135647865920e-01 -2.8489418374809997e-03 0.0000000000000000e+00  0.0000000000000000e+00 0.0000000000000000e+00 0.0000000000000000e+00  1.1071681168086063e+00 -3.0246467458219906e-02 0.0000000000000000e+00  1.0085505352124586e+00 1.7311615590764901e-01 0.0000000000000000e+00  1.0232328359496128e+00 -1.9903371658943792e-04 0.0000000000000000e+00  1.0421402558915573e+00 1.7636899305095630e-02 0.0000000000000000e+00  0.0000000000000000e+00 0.0000000000000000e+00 0.0000000000000000e+00  1.0295198372395731e+00 6.8801782700858693e-03 0.0000000000000000e+00  1.1250001659142304e+00 0.0000000000000000e+00 0.0000000000000000e+00  9.3694456255466096e-01 1.7631823459199332e-03 0.0000000000000000e+00  1.1250001659142304e+00 0.0000000000000000e+00 0.0000000000000000e+00  0.0000000000000000e+00 0.0000000000000000e+00 0.0000000000000000e+00  1.2724736170842097e+00 2.5775948319884190e-01 0.0000000000000000e+00  9.4448095286476264e-01 1.5927818759344372e-02 0.0000000000000000e+00  1.0294951035541335e+00 1.7463944302589338e-03 0.0000000000000000e+00  0.0000000000000000e+00 0.0000000000000000e+00 0.0000000000000000e+00  1.0264391123785113e+00 -2.9985008284568127e-02 0.0000000000000000e+00  1.0337781141442157e+00 -2.2321480317448336e-04 0.0000000000000000e+00  1.0338080485875900e+00 2.0798429429005551e-03 0.0000000000000000e+00  1.0504773824864608e+00 -3.6924494159708096e-02 0.0000000000000000e+00  9.8378735729649980e-01 -2.4243705861774923e-03 0.0000000000000000e+00  1.0218164663583837e+00 7.1314620984395634e-04 0.0000000000000000e+00  9.6759592913181558e-01 -8.0113568081507675e-03 0.0000000000000000e+00  1.0223215834541801e+00 2.0247021099647813e-04 0.0000000000000000e+00  1.0186924374861515e+00 7.5416696327694455e-04 0.0000000000000000e+00  1.0177391084590048e+00 -2.7416424013085503e-05 0.0000000000000000e+00  1.0423473026738532e+00 -7.3338857420054354e-03 0.0000000000000000e+00  1.0072542678573750e+00 3.8665984400277431e-03 0.0000000000000000e+00  1.0319995949527434e+00 5.8729287999692180e-03 0.0000000000000000e+00  9.8836972762204300e-01 6.0188288068849499e-03 0.0000000000000000e+00  0.0000000000000000e+00 0.0000000000000000e+00 0.0000000000000000e+00  1.0312131512294256e+00 -2.6686191885873138e-03 0.0000000000000000e+00  0.0000000000000000e+00 0.0000000000000000e+00 0.0000000000000000e+00  0.0000000000000000e+00 0.0000000000000000e+00 0.0000000000000000e+00  0.0000000000000000e+00 0.0000000000000000e+00 0.0000000000000000e+00  0.0000000000000000e+00 0.0000000000000000e+00 0.0000000000000000e+00  0.0000000000000000e+00 0.0000000000000000e+00 0.0000000000000000e+00  0.0000000000000000e+00 0.0000000000000000e+00 0.0000000000000000e+00  0.0000000000000000e+00 0.0000000000000000e+00 0.0000000000000000e+00  0.0000000000000000e+00 0.0000000000000000e+00 0.0000000000000000e+00  9.2628449598832752e-01 1.6095968988821482e-02 0.0000000000000000e+00  0.0000000000000000e+00 0.0000000000000000e+00 0.0000000000000000e+00  0.0000000000000000e+00 0.0000000000000000e+00 0.0000000000000000e+00  0.0000000000000000e+00 0.0000000000000000e+00 0.0000000000000000e+00  0.0000000000000000e+00 0.0000000000000000e+00 0.0000000000000000e+00  0.0000000000000000e+00 0.0000000000000000e+00 0.0000000000000000e+00  0.0000000000000000e+00 0.0000000000000000e+00 0.0000000000000000e+00  0.0000000000000000e+00 0.0000000000000000e+00 0.0000000000000000e+00  0.0000000000000000e+00 0.0000000000000000e+00 0.0000000000000000e+00  0.0000000000000000e+00 0.0000000000000000e+00 0.0000000000000000e+00  0.0000000000000000e+00 0.0000000000000000e+00 0.0000000000000000e+00  0.0000000000000000e+00 0.0000000000000000e+00 0.0000000000000000e+00  0.0000000000000000e+00 0.0000000000000000e+00 0.0000000000000000e+00  0.0000000000000000e+00 0.0000000000000000e+00 0.0000000000000000e+00  0.0000000000000000e+00 0.0000000000000000e+00 0.0000000000000000e+00  0.0000000000000000e+00 0.0000000000000000e+00 0.0000000000000000e+00  0.0000000000000000e+00 0.0000000000000000e+00 0.0000000000000000e+00  0.0000000000000000e+00 0.0000000000000000e+00 0.0000000000000000e+00  0.0000000000000000e+00 0.0000000000000000e+00 0.0000000000000000e+00  9.3441253619881048e-01 -3.5377850205867999e-02 0.0000000000000000e+00  1.0027068763174869e+00 1.2991919581275730e-02 0.0000000000000000e+00  1.0278670893693962e+00 1.3489698968246132e-02 0.0000000000000000e+00  1.0145022532237451e+00 -1.2149296681096955e-02 0.0000000000000000e+00  9.3949712500953619e-01 1.8818574256651991e-04 0.0000000000000000e+00  1.0343576485920127e+00 -2.2060213737056878e-04 0.0000000000000000e+00  8.3621210317173156e-01 -7.3248894454838072e-03 0.0000000000000000e+00  9.9563258890202566e-01 1.5567114397489124e-01 0.0000000000000000e+00  1.0210284049402258e+00 -1.4467126888060133e-01 0.0000000000000000e+00  1.3665906639418248e+00 7.1121935453067695e-03 0.0000000000000000e+00  9.9173318557024881e-01 1.1601258314453709e-04 0.0000000000000000e+00  9.6486594431630690e-01 -2.5315106022516808e-02 0.0000000000000000e+00  1.0611115890706293e+00 4.2851213228315204e-03 0.0000000000000000e+00  1.1331085712717324e+00 -2.6733755807083576e-01 0.0000000000000000e+00  1.0947864722635057e+00 1.7065305429624859e-02 0.0000000000000000e+00  1.4120715701785433e+00 -1.9272039323880094e-01 0.0000000000000000e+00  1.3931260213725407e+00 -4.6258769248073019e-02 0.0000000000000000e+00  1.6056117461427692e+00 1.1139745422872982e-01 0.0000000000000000e+00  1.4126933635292012e+00 1.3431027143429440e-04 0.0000000000000000e+00  1.3505829060934920e+00 3.7103231783080694e-03 0.0000000000000000e+00  8.6348183012143831e-01 2.0541074753730536e-02 0.0000000000000000e+00  1.0050492871054884e+00 -7.4973832125179709e-04 0.0000000000000000e+00  1.0255626395586621e+00 -1.0334247291268922e-02 0.0000000000000000e+00  8.0611531509347489e-01 2.2200604668833557e-01 0.0000000000000000e+00  9.8581743991533610e-01 2.8236853015915818e-04 0.0000000000000000e+00  1.1136387509856995e+00 5.4696601244469387e-02 0.0000000000000000e+00  1.0270412706929797e+00 4.0503315880204213e-02 0.0000000000000000e+00  7.9188231118214314e-01 3.7463683099437156e-01 0.0000000000000000e+00  8.6266064105505325e-01 3.8299187934538133e-02 0.0000000000000000e+00  9.2275951253831945e-01 -5.0358939775874738e-02 0.0000000000000000e+00  6.4515259349471654e-01 5.3636971347952901e-02 0.0000000000000000e+00  9.9820222432690053e-01 -4.8063022538334080e-04 0.0000000000000000e+00  1.0636150799035742e+00 3.4307610135861671e-02 0.0000000000000000e+00  9.6478895069349258e-01 3.6339483150864590e-02 0.0000000000000000e+00  8.3018600080089811e-01 1.8477934129447524e-02 0.0000000000000000e+00  9.9016583922496959e-01 -1.1049964638648232e-02 0.0000000000000000e+00  1.2401086008107309e+00 2.9600557536273286e-01 0.0000000000000000e+00  1.0197479302624290e+00 -2.4444457553147963e-03 0.0000000000000000e+00  9.4831965875661339e-01 -4.9348607312478714e-03 0.0000000000000000e+00  1.0318746725740984e+00 1.7880914751057151e-03 0.0000000000000000e+00  9.8447224954719081e-01 -4.7417494520244925e-03 0.0000000000000000e+00  9.9439113922666089e-01 2.6305393440010327e-02 0.0000000000000000e+00  1.0327141486481899e+00 -8.5871029222971758e-04 0.0000000000000000e+00  8.3876110035961926e-01 4.9491783964617120e-02 0.0000000000000000e+00  8.2857528960867466e-01 -2.2860772697241728e-02 0.0000000000000000e+00  8.2296803066461410e-01 6.2543934281573746e-02 0.0000000000000000e+00  1.0325257542616668e+00 -7.4379553233077369e-03 0.0000000000000000e+00  1.0340306811302669e+00 -1.6914967723722897e-04 0.0000000000000000e+00  7.3582742812190072e-01 3.8065885041374620e-02 0.0000000000000000e+00  6.5625009678330104e-01 0.0000000000000000e+00 0.0000000000000000e+00  8.2224750622498177e-01 -3.8313507111772721e-01 0.0000000000000000e+00  1.0621096416576388e+00 1.4046738510777819e-02 0.0000000000000000e+00  2.4596716965643847e-01 -3.0638899949667921e-02 0.0000000000000000e+00  9.0311861031134955e-01 2.3637366988433679e-02 0.0000000000000000e+00  7.6525619890419216e-01 1.9115883929015989e-02 0.0000000000000000e+00  1.0031369019585279e+00 1.1841956459412153e-03 0.0000000000000000e+00  9.8944077266906083e-01 4.0205650088354543e-03 0.0000000000000000e+00  1.0176335718183260e+00 -3.3184168852963217e-03 0.0000000000000000e+00  1.0355842963149189e+00 -5.6335374311062506e-04 0.0000000000000000e+00  1.0293211659019346e+00 3.9189240234747047e-03 0.0000000000000000e+00  1.0320827872784080e+00 -1.1510911615328686e-03 0.0000000000000000e+00  1.0865772883027749e+00 -6.7189382989241327e-03 0.0000000000000000e+00  1.0313877244271250e+00 1.2101173422001232e-02 0.0000000000000000e+00  1.0320600279919954e+00 5.6029674460929824e-03 0.0000000000000000e+00  1.0879896452908624e+00 1.4846436784554893e-02 0.0000000000000000e+00  1.0252700154567702e+00 1.7840628926107595e-03 0.0000000000000000e+00  1.0250959049670203e+00 5.4599460758465029e-03 0.0000000000000000e+00  7.4887386169256276e-01 2.7865077419448978e-02 0.0000000000000000e+00  9.6060301779346902e-01 -1.2651621542365192e-03 0.0000000000000000e+00  1.0808514269191978e+00 -6.6622548344641486e-02 0.0000000000000000e+00  7.5157722289248885e-01 -1.8524476759850086e-01 0.0000000000000000e+00  9.8508734418023769e-01 3.5331407509806840e-03 0.0000000000000000e+00  1.2500064202736598e+00 -1.0609322777551727e-01 0.0000000000000000e+00  1.0293558149927382e+00 4.3416753496349813e-03 0.0000000000000000e+00  9.5613200215621574e-01 3.1504671722058651e-03 0.0000000000000000e+00  1.0296249462808715e+00 4.3987984119269376e-03 0.0000000000000000e+00  9.9537134814310979e-01 -1.0132420677589302e-01 0.0000000000000000e+00  1.0272694560121458e+00 4.0009821140719135e-03 0.0000000000000000e+00  1.0216929848463643e+00 -7.1417591498021855e-03 0.0000000000000000e+00  1.0314339459349049e+00 -2.6393315027038252e-03 0.0000000000000000e+00  9.7198254082052638e-01 2.1149786747858403e-04 0.0000000000000000e+00  9.8013012461797688e-01 2.6124532842325622e-03 0.0000000000000000e+00  1.0311343364555647e+00 -2.9276143256919702e-02 0.0000000000000000e+00  9.6125652837196285e-01 -2.4244520209009504e-03 0.0000000000000000e+00  1.0273254479080136e+00 1.2268970124364978e-03 0.0000000000000000e+00  1.0337918283455854e+00 4.2981356530056520e-03 0.0000000000000000e+00  9.7871024090049963e-01 -1.6506875944350821e-01 0.0000000000000000e+00  9.8112843175864750e-01 2.4851390779133800e-02 0.0000000000000000e+00  8.6603164615016237e-01 1.6766413778614910e-02 0.0000000000000000e+00  1.0349485883702532e+00 1.3178299678635122e-03 0.0000000000000000e+00  1.0339202738630273e+00 -1.0360029441043484e-03 0.0000000000000000e+00  1.0329354200607250e+00 1.8764608648400697e-03 0.0000000000000000e+00  8.2405500635224849e-01 -4.9443048427119184e-02 0.0000000000000000e+00  9.7168671505545301e-01 -5.9028102721394530e-03 0.0000000000000000e+00  1.0180090996239071e+00 3.6028367840341545e-02 0.0000000000000000e+00  9.4243353247535566e-01 2.6474996139588510e-03 0.0000000000000000e+00  8.9410917144184199e-01 2.7462665164988808e-02 0.0000000000000000e+00  9.1263445225636430e-01 2.9718882817227291e-02 0.0000000000000000e+00  9.3441775511636438e-01 1.3012732103946299e-02 0.0000000000000000e+00  1.0380665421259998e+00 9.4680913699792014e-03 0.0000000000000000e+00  8.4982489146734252e-01 -1.2293491937754692e-03 0.0000000000000000e+00  9.3930776465140431e-01 -2.9793528169016542e-01 0.0000000000000000e+00  9.3817313512517586e-01 -3.0260299232776765e-03 0.0000000000000000e+00  9.8570344889091099e-01 5.0377645833948135e-03 0.0000000000000000e+00  1.0049568216877072e+00 5.7779991299266517e-03 0.0000000000000000e+00  1.033560