<?xml version="1.0"?>
<VTKFile type="UnstructuredGrid"  version="0.1"  >
<UnstructuredGrid>
<Piece  NumberOfPoints="4269" NumberOfCells="8234">
<Points>
<DataArray  type="Float64"  NumberOfComponents="3"  format="ascii">0 1 0  0 0 0  7.5 0 0  7.5 1 0  1.197537668119028 0.5812868930080463 0  1.2 0.55 0  1.197537668119028 0.5187131069919538 0  1.190211303259031 0.4881966011250105 0  1.178201304837674 0.4592019000520907 0  1.161803398874989 0.4324429495415054 0  1.141421356237309 0.4085786437626905 0  1.117557050458495 0.3881966011250105 0  1.090798099947909 0.3717986951623264 0  1.06180339887499 0.3597886967409693 0  1.031286893008046 0.3524623318809725 0  1 0.35 0  0.9687131069919538 0.3524623318809725 0  0.9381966011250105 0.3597886967409694 0  0.9092019000520906 0.3717986951623264 0  0.8824429495415054 0.3881966011250105 0  0.8585786437626904 0.4085786437626905 0  0.8381966011250105 0.4324429495415054 0  0.8217986951623264 0.4592019000520907 0  0.8097886967409692 0.4881966011250107 0  0.8024623318809725 0.5187131069919539 0  0.8 0.55 0  0.8024623318809725 0.5812868930080463 0  0.8097886967409693 0.6118033988749896 0  0.8217986951623264 0.6407980999479095 0  0.8381966011250105 0.6675570504584947 0  0.8585786437626906 0.6914213562373096 0  0.8824429495415054 0.7118033988749896 0  0.9092019000520907 0.7282013048376736 0  0.9381966011250106 0.7402113032590307 0  0.9687131069919539 0.7475376681190276 0  1 0.75 0  1.031286893008046 0.7475376681190276 0  1.06180339887499 0.7402113032590307 0  1.090798099947909 0.7282013048376736 0  1.117557050458495 0.7118033988749896 0  1.141421356237309 0.6914213562373095 0  1.161803398874989 0.6675570504584947 0  1.178201304837674 0.6407980999479094 0  1.190211303259031 0.6118033988749896 0  3.75 0 0  3.75 1 0  1.875 0 0  1.875 1 0  0.9375 0 0  0.9375 1 0  1.40625 1 0  5.625 1 0  5.625 0 0  2.8125 1 0  2.8125 0 0  4.6875 0 0  4.6875 1 0  6.5625 0 0  6.5625 1 0  5.15625 0.5 0  4.21875 0.5 0  2.34375 0.5 0  3.28125 0.5 0  6.09375 0.5 0  7.5 0.5 0  6.897916666666666 0.5 0  1.842708333333333 0.5 0  0 0.5 0  0.46875 0 0  5.625 0.5302734375 0  7.03125 0 0  6.09375 1 0  2.8125 0.4697265625 0  3.28125 0 0  2.34375 1 0  2.34375 0 0  3.75 0.4697265625 0  4.21875 0 0  4.21875 1 0  4.6875 0.5302734375 0  3.28125 1 0  5.15625 0 0  6.09375 0 0  5.15625 1 0  0.46875 1 0  1.40625 0 0  7.03125 1 0  0.3954638734376499 0.5975780249976004 0  6.495833333333334 0.4072265624999998 0  5.859375 0.25 0  4.905729166666666 0.26513671875 0  4.453125 0.25 0  3.531770833333333 0.73486328125 0  3.968229166666667 0.73486328125 0  2.594270833333333 0.73486328125 0  3.030729166666667 0.73486328125 0  6.328125 0.75 0  7.198958333333334 0.3125000000000002 0  7.198958333333334 0.6874999999999998 0  5.390625 0.25 0  0 0.25 0  2.109375 0.75 0  2.109375 0.25 0  1.51921323205749 0.3418883887525936 0  1.522346610178253 0.6811769608297746 0  5.375456746419271 0.75 0  4.921875 0.76513671875 0  4.437956746419271 0.75 0  3.984375 0.23486328125 0  3.500456746419271 0.25 0  2.578125 0.23486328125 0  3.046875 0.23486328125 0  5.874543253580729 0.75 0  6.642123189445656 0.6909095493086836 0  6.746354166666666 0.2391688368055553 0  0.3197109619185111 0.2850049285972083 0  6.328125 0 0  0.6313375889370429 0.2351325552547357 0  0 0.75 0  6.252283381534729 0.2693808819694041 0  0.234375 1 0  6.948437500000001 0.7543055555555555 0  0.5934018769555939 0.7694151657947577 0  1.858854166666667 0.75 0  1.858854166666667 0.25 0  1.640625 0 0  2.093229166666667 0.5 0  7.5 0.25 0  3.282227579752604 0.75 0  7.5 0.75 0  1.171875 0 0  1.303539853147731 0.2235426933121065 0  5.148177083333333 0.2575683593749998 0  2.351822916666667 0.742431640625 0  1.640625 1 0  4.202380413457425 0.7645435094236485 0  3.047822985053062 0.4701848030090332 0  2.577177014946938 0.4701848030090332 0  4.672792740482199 0.76513671875 0  4.922822985053062 0.5298151969909668 0  5.390593497949761 0.5156244924311331 0  5.610292740482199 0.76513671875 0  3.516602579752604 0.5 0  4.45496853898097 0.4865915990446593 0  5.85753146101903 0.4865915990446593 0  3.749511210123698 0.23486328125 0  3.983397420247396 0.4999999999999999 0  2.343497975411212 0.2346270081980111 0  4.219002024588788 0.2346270081980111 0  0.703125 0 0  2.8125 0.2343755075688669 0  3.046875 0 0  2.578125 0 0  3.515625 0 0  3.984375 0 0  4.453125 1 0  5.390625 1 0  2.109375 0 0  2.109375 1 0  5.625 0.2921402030705575 0  5.390625 0 0  7.265625 0 0  6.796875 0 0  6.328125 1 0  3.046875 1 0  2.578125 1 0  3.984375 1 0  3.515625 1 0  4.453125 0 0  4.921875 0 0  5.859375 0 0  0.703125 1 0  1.171875 1 0  7.265625 1 0  4.921875 1 0  5.859375 1 0  0.234375 0 0  6.796875 1 0  6.980310975276531 0.2285890127127066 0  5.149170481934885 0.772689292163473 0  3.274170481934884 0.2273107078365268 0  6.101334126790364 0.7722468376159667 0  4.678005340872584 0.3000799877067239 0  2.8125 0.6921051326382495 0  3.75 0.6921051326382495 0  0.3515624999999999 0.8134571721668546 0  0.4990405774417521 0.4070099317153735 0  0.1789273931360182 0.625 0  6.31239060814315 0.5298877111157968 0  6.456979773992304 0.1917956348713352 0  6.699870808919271 0.4406293402777773 0  1.337539480965883 0.7944303676599538 0  6.058675797563041 0.2019812164653516 0  0.8203125 0.1643029084422534 0  0.1480856513011711 0.375 0  1.090769294689562 0.1719186776982972 0  7.291088163206459 0.5 0  7.094502414936563 0.5197902199074071 0  0.6046212059042245 0.5730066483871106 0  1.707231580809486 0.6342709161352207 0  1.685961352504593 0.8193269193390785 0  1.374721602852827 0.4600373025865813 0  6.486415510043844 0.5916440776477192 0  1.5234375 0.1508863828685116 0  1.707925830421689 0.3657739208189008 0  0.1674513225045584 0.8278776664019765 0  7.138268756771176 0.1438183366439137 0  7.1484375 0.8616388888888887 0  7.328562530764119 0.819498462930605 0  4.101073710123698 0.3678637200736647 0  1.693878467219965 0.1911955120941053 0  1.577566745468488 0.5110082404081502 0  6.6796875 0.8653871806883484 0  6.498039504430512 0.825568433346395 0  0.7562556668576472 0.8333197949571929 0  4.101045914668806 0.6255195807449272 0  5.030745188395182 0.382829047309028 0  2.476364945868651 0.6095868094762166 0  2.729359843907322 0.8460525663191247 0  2.9296875 0.8740763101564099 0  3.163518307559356 0.6254622797994247 0  3.666859843907322 0.8460525663191247 0  3.8671875 0.8740763101564099 0  4.8046875 0.12592368984359 0  3.14936031382311 0.8606990583876851 0  2.4609375 0.8747622921397776 0  5.023140791101972 0.1392266772452574 0  0 0.125 0  0.1759922923594607 0.1727589856739889 0  4.5703125 0.125 0  7.327755777818006 0.1766156770456191 0  5.5078125 0.125 0  5.719712725029036 0.1460701015352787 0  4.327848962028002 0.3674169956512513 0  5.982681121544351 0.3692637923021713 0  3.398926289876302 0.6245417594909667 0  5.281756792511996 0.3827993367299961 0  2.226822645963271 0.6252438868405666 0  2.234390064317166 0.8676616584526566 0  5.2734375 0.125 0  1.96796875 0.382568359375 0  2.234651037971999 0.3674169956512511 0  1.984114583333333 0.132568359375 0  1.9921875 0.875 0  1.984114583333333 0.632568359375 0  5.748733794462357 0.8678269127183313 0  3.3984375 0.875456329184688 0  1.512925924995415 0.8582958012121853 0  1.359299372802969 0.6275861864990343 0  4.810521420483513 0.4041767793635395 0  0.2996213306116602 0.455339710363317 0  5.999933717403708 0.6388425470751088 0  5.250033449003657 0.6388713364551682 0  3.631676045992918 0.3525406652400928 0  4.3359375 0.8816499670325881 0  4.343577437052484 0.6116511299909198 0  3.375033449003656 0.3611286635448316 0  5.763152151652243 0.6249404690537395 0  4.549347848347757 0.6249404690537396 0  5.5004588702411 0.6403667365776566 0  5.976118394847484 0.8816230218343086 0  5.054722486865804 0.6338007028640954 0  3.164542163493752 0.3520519332736524 0  2.445407482032355 0.3672168403687257 0  4.8046875 0.882568359375 0  4.1015625 0.117431640625 0  2.4609375 0.117431640625 0  2.695556894938151 0.3520510350344335 0  2.929443105061849 0.3520510350344335 0  3.881979231817319 0.3670559016511187 0  3.8671875 0.117431640625 0  4.805389247695744 0.6470047893641744 0  3.399370721942191 0.1184066543556767 0  5.274370721942192 0.881593345644323 0  3.618253274934649 0.1316869186284249 0  2.6953125 0.1171877537844335 0  2.9296875 0.1171877537844335 0  2.21873344389451 0.125 0  4.3359375 0.1171877625080073 0  0.6659898565672709 0.3986593551313873 0  7.363359022954956 0.3481046411219251 0  7.363359022954956 0.6518953588780749 0  5.487719392831826 0.3828237631077121 0  2.695054578344725 0.5809158475691247 0  2.944553877887707 0.5964065668438148 0  0.3515625 0.1201898858097106 0  5.5078125 1 0  4.5703125 1 0  5.031746201297604 0.882568359375 0  3.1640625 0 0  6.2109375 1 0  6.186845385763124 0.6336356480571081 0  4.1015625 1 0  6.810399074069772 0.6495574751396682 0  0.4740615253480797 0.2509287743856873 0  7.052064303830151 0.3684417917792242 0  6.195177069665382 0.1216488332168849 0  5.72300154718324 0.4112068202852788 0  3.879157465495092 0.6111892850691246 0  3.645760045247695 0.5809158475691247 0  6.868257400485771 0.3427840810237202 0  6.612030892260864 0.1521752713064389 0  6.615666885941117 0.3151079644097221 0  4.04296875 0.8633718902669071 0  1.183031453639096 0.8486801864185936 0  6.9140625 0 0  6.859079526500421 0.1398292786950638 0  6.808232443325651 0.7957411753922057 0  6.9140625 1 0  4.544955211100143 0.3675874343205077 0  1.0546875 1 0  6.122060236165557 0.3316791557072867 0  0.5859375 0 0  5.9765625 0 0  5.44921875 0.870984788733638 0  4.51171875 0.870984788733638 0  0.7608354256382215 0.2931261274224557 0  6.386875332239937 0.3156583003094978 0  6.985654756850997 0.6147408423643147 0  6.223797257919172 0.8535621912121121 0  5.936822413218736 0.1338376546337823 0  6.23933008800134 0.4095573603773768 0  0.5414022462152697 0.1305482677949959 0  6.331360438104348 0.1370086318183389 0  0.956404929269873 0.1374266563647954 0  1.2890625 1 0  0.691305981127761 0.6764829884281737 0  3.531251607241209 0.8678916320952239 0  2.59787442813022 
[...]
<PointData  Vectors="f_71627"> 
<DataArray  type="Float64"  Name="f_71627"  NumberOfComponents="3" format="ascii">0.0000000000000000e+00 0.0000000000000000e+00 0.0000000000000000e+00  0.0000000000000000e+00 0.0000000000000000e+00 0.0000000000000000e+00  0.0000000000000000e+00 0.0000000000000000e+00 0.0000000000000000e+00  0.0000000000000000e+00 0.0000000000000000e+00 0.0000000000000000e+00  0.0000000000000000e+00 0.0000000000000000e+00 0.0000000000000000e+00  0.0000000000000000e+00 0.0000000000000000e+00 0.0000000000000000e+00  0.0000000000000000e+00 0.0000000000000000e+00 0.0000000000000000e+00  0.0000000000000000e+00 0.0000000000000000e+00 0.0000000000000000e+00  0.0000000000000000e+00 0.0000000000000000e+00 0.0000000000000000e+00  0.0000000000000000e+00 0.0000000000000000e+00 0.0000000000000000e+00  0.0000000000000000e+00 0.0000000000000000e+00 0.0000000000000000e+00  0.0000000000000000e+00 0.0000000000000000e+00 0.0000000000000000e+00  0.0000000000000000e+00 0.0000000000000000e+00 0.0000000000000000e+00  0.0000000000000000e+00 0.0000000000000000e+00 0.0000000000000000e+00  0.0000000000000000e+00 0.0000000000000000e+00 0.0000000000000000e+00  0.0000000000000000e+00 0.0000000000000000e+00 0.0000000000000000e+00  0.0000000000000000e+00 0.0000000000000000e+00 0.0000000000000000e+00  0.0000000000000000e+00 0.0000000000000000e+00 0.0000000000000000e+00  0.0000000000000000e+00 0.0000000000000000e+00 0.0000000000000000e+00  0.0000000000000000e+00 0.0000000000000000e+00 0.0000000000000000e+00  0.0000000000000000e+00 0.0000000000000000e+00 0.0000000000000000e+00  0.0000000000000000e+00 0.0000000000000000e+00 0.0000000000000000e+00  0.0000000000000000e+00 0.0000000000000000e+00 0.0000000000000000e+00  0.0000000000000000e+00 0.0000000000000000e+00 0.0000000000000000e+00  0.0000000000000000e+00 0.0000000000000000e+00 0.0000000000000000e+00  0.0000000000000000e+00 0.0000000000000000e+00 0.0000000000000000e+00  0.0000000000000000e+00 0.0000000000000000e+00 0.0000000000000000e+00  0.0000000000000000e+00 0.0000000000000000e+00 0.0000000000000000e+00  0.0000000000000000e+00 0.0000000000000000e+00 0.0000000000000000e+00  0.0000000000000000e+00 0.0000000000000000e+00 0.0000000000000000e+00  0.0000000000000000e+00 0.0000000000000000e+00 0.0000000000000000e+00  0.0000000000000000e+00 0.0000000000000000e+00 0.0000000000000000e+00  0.0000000000000000e+00 0.0000000000000000e+00 0.0000000000000000e+00  0.0000000000000000e+00 0.0000000000000000e+00 0.0000000000000000e+00  0.0000000000000000e+00 0.0000000000000000e+00 0.0000000000000000e+00  0.0000000000000000e+00 0.0000000000000000e+00 0.0000000000000000e+00  0.0000000000000000e+00 0.0000000000000000e+00 0.0000000000000000e+00  0.0000000000000000e+00 0.0000000000000000e+00 0.0000000000000000e+00  0.0000000000000000e+00 0.0000000000000000e+00 0.0000000000000000e+00  0.0000000000000000e+00 0.0000000000000000e+00 0.0000000000000000e+00  0.0000000000000000e+00 0.0000000000000000e+00 0.0000000000000000e+00  0.0000000000000000e+00 0.0000000000000000e+00 0.0000000000000000e+00  0.0000000000000000e+00 0.0000000000000000e+00 0.0000000000000000e+00  0.0000000000000000e+00 0.0000000000000000e+00 0.0000000000000000e+00  0.0000000000000000e+00 0.0000000000000000e+00 0.0000000000000000e+00  0.0000000000000000e+00 0.0000000000000000e+00 0.0000000000000000e+00  0.0000000000000000e+00 0.0000000000000000e+00 0.0000000000000000e+00  0.0000000000000000e+00 0.0000000000000000e+00 0.0000000000000000e+00  0.0000000000000000e+00 0.0000000000000000e+00 0.0000000000000000e+00  0.0000000000000000e+00 0.0000000000000000e+00 0.0000000000000000e+00  0.0000000000000000e+00 0.0000000000000000e+00 0.0000000000000000e+00  0.0000000000000000e+00 0.0000000000000000e+00 0.0000000000000000e+00  0.0000000000000000e+00 0.0000000000000000e+00 0.0000000000000000e+00  0.0000000000000000e+00 0.0000000000000000e+00 0.0000000000000000e+00  0.0000000000000000e+00 0.0000000000000000e+00 0.0000000000000000e+00  0.0000000000000000e+00 0.0000000000000000e+00 0.0000000000000000e+00  0.0000000000000000e+00 0.0000000000000000e+00 0.0000000000000000e+00  0.0000000000000000e+00 0.0000000000000000e+00 0.0000000000000000e+00  0.0000000000000000e+00 0.0000000000000000e+00 0.0000000000000000e+00  1.0835575060080498e+00 -1.8411796072081992e-03 0.0000000000000000e+00  1.0851701584573079e+00 8.0632528065121016e-04 0.0000000000000000e+00  1.1025681606007223e+00 -1.1581373326079204e-02 0.0000000000000000e+00  1.0834760302008555e+00 -1.7173765855851694e-03 0.0000000000000000e+00  1.0747385153055113e+00 2.4029286690216410e-03 0.0000000000000000e+00  1.5000002030837631e+00 0.0000000000000000e+00 0.0000000000000000e+00  1.1696826260028199e+00 -2.5860392058796918e-03 0.0000000000000000e+00  7.7944956894956197e-01 4.3696072790706253e-01 0.0000000000000000e+00  1.5000002030837631e+00 0.0000000000000000e+00 0.0000000000000000e+00  0.0000000000000000e+00 0.0000000000000000e+00 0.0000000000000000e+00  1.0823115328368862e+00 6.9778715543487618e-04 0.0000000000000000e+00  0.0000000000000000e+00 0.0000000000000000e+00 0.0000000000000000e+00  0.0000000000000000e+00 0.0000000000000000e+00 0.0000000000000000e+00  1.0860319876807287e+00 -2.2306993638786430e-03 0.0000000000000000e+00  0.0000000000000000e+00 0.0000000000000000e+00 0.0000000000000000e+00  0.0000000000000000e+00 0.0000000000000000e+00 0.0000000000000000e+00  0.0000000000000000e+00 0.0000000000000000e+00 0.0000000000000000e+00  1.0822786698898295e+00 1.5430197109006153e-04 0.0000000000000000e+00  0.0000000000000000e+00 0.0000000000000000e+00 0.0000000000000000e+00  0.0000000000000000e+00 0.0000000000000000e+00 0.0000000000000000e+00  1.0867669282201708e+00 -1.5593362909231516e-03 0.0000000000000000e+00  0.0000000000000000e+00 0.0000000000000000e+00 0.0000000000000000e+00  0.0000000000000000e+00 0.0000000000000000e+00 0.0000000000000000e+00  0.0000000000000000e+00 0.0000000000000000e+00 0.0000000000000000e+00  0.0000000000000000e+00 0.0000000000000000e+00 0.0000000000000000e+00  0.0000000000000000e+00 0.0000000000000000e+00 0.0000000000000000e+00  0.0000000000000000e+00 0.0000000000000000e+00 0.0000000000000000e+00  0.0000000000000000e+00 0.0000000000000000e+00 0.0000000000000000e+00  1.3666325128487284e+00 -2.1868128500296364e-02 0.0000000000000000e+00  1.1209518955260893e+00 -7.3564576266946955e-03 0.0000000000000000e+00  1.0965190084702983e+00 -4.7959835739425636e-04 0.0000000000000000e+00  1.0627822239766744e+00 5.5342099088061172e-03 0.0000000000000000e+00  1.0722779150957487e+00 -1.7969257281568543e-03 0.0000000000000000e+00  1.0797701628110215e+00 -2.5443186044816113e-03 0.0000000000000000e+00  1.0869312552991357e+00 8.9027391855133126e-04 0.0000000000000000e+00  1.0873184882046494e+00 2.4732144418823953e-03 0.0000000000000000e+00  1.0869631483013742e+00 -2.4324197469949051e-03 0.0000000000000000e+00  1.0928888490864679e+00 -2.6751413166387862e-03 0.0000000000000000e+00  7.4741582952173569e-01 9.1750240294502135e-03 0.0000000000000000e+00  9.3533924851285444e-01 1.9253016602311452e-02 0.0000000000000000e+00  1.0800628420381420e+00 1.2076467848597143e-03 0.0000000000000000e+00  1.1250001523128224e+00 0.0000000000000000e+00 0.0000000000000000e+00  1.3121246713424344e+00 8.3247550294584069e-02 0.0000000000000000e+00  1.1503692014228717e+00 -5.0154662523381979e-02 0.0000000000000000e+00  1.7880149753295291e+00 5.6475685766575745e-01 0.0000000000000000e+00  -5.3148374410327770e-02 -2.6664483533911443e-01 0.0000000000000000e+00  1.0834418745554422e+00 4.6394855144418186e-03 0.0000000000000000e+00  1.0876550087151180e+00 5.0628431338601374e-03 0.0000000000000000e+00  1.0902194634432665e+00 5.2519342541837563e-03 0.0000000000000000e+00  1.0817499032826683e+00 1.2682444329083849e-03 0.0000000000000000e+00  1.0823715366075484e+00 -4.4756168922670363e-03 0.0000000000000000e+00  1.0791872137726706e+00 -8.9621799121004792e-03 0.0000000000000000e+00  1.0856881954654851e+00 5.5748973570574008e-05 0.0000000000000000e+00  1.0862668064016621e+00 -3.5505709168420921e-03 0.0000000000000000e+00  1.0676634248487982e+00 7.4285107253435406e-04 0.0000000000000000e+00  1.0991611089810926e+00 -8.0148707924998404e-03 0.0000000000000000e+00  1.2287290179797699e+00 -8.1770623203657897e-02 0.0000000000000000e+00  0.0000000000000000e+00 0.0000000000000000e+00 0.0000000000000000e+00  1.2429838273586584e+00 -3.0622281939296775e-01 0.0000000000000000e+00  1.1250001523128224e+00 0.0000000000000000e+00 0.0000000000000000e+00  1.1066553403138215e+00 -6.5164574197927930e-04 0.0000000000000000e+00  0.0000000000000000e+00 0.0000000000000000e+00 0.0000000000000000e+00  1.2648609757678624e+00 7.7555855915315084e-04 0.0000000000000000e+00  1.0524315652408829e+00 2.0825477295834202e-01 0.0000000000000000e+00  1.7222044495109319e+00 -2.4867941704780375e-01 0.0000000000000000e+00  1.3884079172185877e+00 2.0583797182495034e-01 0.0000000000000000e+00  0.0000000000000000e+00 0.0000000000000000e+00 0.0000000000000000e+00  1.0658056196846279e+00 -2.8812520570954792e-02 0.0000000000000000e+00  1.1250001523128224e+00 0.0000000000000000e+00 0.0000000000000000e+00  1.0790050070738526e+00 -1.5484999393399024e-03 0.0000000000000000e+00  1.1250001523128224e+00 0.0000000000000000e+00 0.0000000000000000e+00  0.0000000000000000e+00 0.0000000000000000e+00 0.0000000000000000e+00  2.3302021080461990e+00 -5.8818897070103465e-03 0.0000000000000000e+00  1.0841673912136451e+00 1.3833093852448559e-03 0.0000000000000000e+00  1.0950809870477460e+00 2.6777172176094349e-02 0.0000000000000000e+00  0.0000000000000000e+00 0.0000000000000000e+00 0.0000000000000000e+00  1.0893262032736393e+00 2.8204218603723069e-03 0.0000000000000000e+00  1.0859262478110487e+00 -1.6154380931900415e-03 0.0000000000000000e+00  1.0888830352739236e+00 -5.0344837995594180e-03 0.0000000000000000e+00  1.0926722176459360e+00 4.0445175208878633e-03 0.0000000000000000e+00  1.0828419007786394e+00 -2.2088532775917011e-03 0.0000000000000000e+00  1.0808721395657337e+00 -1.0292046596446526e-03 0.0000000000000000e+00  1.0757077104912576e+00 2.2496510365155346e-03 0.0000000000000000e+00  1.0882590718306349e+00 2.2082074687646306e-04 0.0000000000000000e+00  1.0824199572794022e+00 2.7101162967300718e-03 0.0000000000000000e+00  1.0807376182956494e+00 -4.4594126769663064e-04 0.0000000000000000e+00  1.0822530842788758e+00 -4.2655358153983825e-03 0.0000000000000000e+00  1.0868885103454324e+00 2.0654035529581519e-03 0.0000000000000000e+00  1.0794989752436899e+00 -2.8421058897267409e-02 0.0000000000000000e+00  1.0724305341667426e+00 2.2402098599958299e-04 0.0000000000000000e+00  0.0000000000000000e+00 0.0000000000000000e+00 0.0000000000000000e+00  1.0832030228438752e+00 -1.9997480240386291e-03 0.0000000000000000e+00  0.0000000000000000e+00 0.0000000000000000e+00 0.0000000000000000e+00  0.0000000000000000e+00 0.0000000000000000e+00 0.0000000000000000e+00  0.0000000000000000e+00 0.0000000000000000e+00 0.0000000000000000e+00  0.0000000000000000e+00 0.0000000000000000e+00 0.0000000000000000e+00  0.0000000000000000e+00 0.0000000000000000e+00 0.0000000000000000e+00  0.0000000000000000e+00 0.0000000000000000e+00 0.0000000000000000e+00  0.0000000000000000e+00 0.0000000000000000e+00 0.0000000000000000e+00  0.0000000000000000e+00 0.0000000000000000e+00 0.0000000000000000e+00  1.0677449980813936e+00 -2.0114943921134827e-03 0.0000000000000000e+00  0.0000000000000000e+00 0.0000000000000000e+00 0.0000000000000000e+00  0.0000000000000000e+00 0.0000000000000000e+00 0.0000000000000000e+00  0.0000000000000000e+00 0.0000000000000000e+00 0.0000000000000000e+00  0.0000000000000000e+00 0.0000000000000000e+00 0.0000000000000000e+00  0.0000000000000000e+00 0.0000000000000000e+00 0.0000000000000000e+00  0.0000000000000000e+00 0.0000000000000000e+00 0.0000000000000000e+00  0.0000000000000000e+00 0.0000000000000000e+00 0.0000000000000000e+00  0.0000000000000000e+00 0.0000000000000000e+00 0.0000000000000000e+00  0.0000000000000000e+00 0.0000000000000000e+00 0.0000000000000000e+00  0.0000000000000000e+00 0.0000000000000000e+00 0.0000000000000000e+00  0.0000000000000000e+00 0.0000000000000000e+00 0.0000000000000000e+00  0.0000000000000000e+00 0.0000000000000000e+00 0.0000000000000000e+00  0.0000000000000000e+00 0.0000000000000000e+00 0.0000000000000000e+00  0.0000000000000000e+00 0.0000000000000000e+00 0.0000000000000000e+00  0.0000000000000000e+00 0.0000000000000000e+00 0.0000000000000000e+00  0.0000000000000000e+00 0.0000000000000000e+00 0.0000000000000000e+00  0.0000000000000000e+00 0.0000000000000000e+00 0.0000000000000000e+00  0.0000000000000000e+00 0.0000000000000000e+00 0.0000000000000000e+00  1.1432650855985846e+00 4.8150285425208766e-04 0.0000000000000000e+00  1.0833805015033977e+00 1.7043718143243906e-03 0.0000000000000000e+00  1.0838592037229073e+00 -2.0949565486412967e-03 0.0000000000000000e+00  1.0806702279181413e+00 1.9772345780712975e-03 0.0000000000000000e+00  1.0802991248418436e+00 2.4319736142139978e-03 0.0000000000000000e+00  1.0865307040436123e+00 -1.6070521037227171e-03 0.0000000000000000e+00  1.0860339141677187e+00 -1.7631759100976360e-03 0.0000000000000000e+00  9.1084779601947174e-01 2.4645237653343092e-02 0.0000000000000000e+00  1.3505196793607848e+00 -1.6805218072675474e-01 0.0000000000000000e+00  1.3948266776872502e+00 -9.5040955977972255e-03 0.0000000000000000e+00  1.0767598621895378e+00 -3.9544833046341798e-03 0.0000000000000000e+00  1.0880387102695610e+00 -2.3676455729952700e-03 0.0000000000000000e+00  1.1552106400847988e+00 -7.0792849536566622e-03 0.0000000000000000e+00  1.9618632345179692e+00 -1.5340459081710051e-01 0.0000000000000000e+00  1.0847781761241753e+00 1.1664794035797875e-04 0.0000000000000000e+00  1.4473830503656688e+00 -3.4840580950271394e-01 0.0000000000000000e+00  1.4041520532555258e+00 -2.4020612308938264e-02 0.0000000000000000e+00  2.0210922273294400e+00 -1.6922029075550932e-01 0.0000000000000000e+00  1.4041202904252830e+00 -1.4269529422451499e-02 0.0000000000000000e+00  1.3499941665297672e+00 -5.7620073775522468e-03 0.0000000000000000e+00  1.1479293986095473e+00 1.7693472312407060e-02 0.0000000000000000e+00  -1.1430481272219302e-01 1.6630452062735962e-01 0.0000000000000000e+00  1.7168915213707376e+00 -4.2976955233231390e-01 0.0000000000000000e+00  -1.5861047398540465e-01 -4.8907051828679227e-01 0.0000000000000000e+00  1.0914346749984707e+00 1.2144433847067043e-04 0.0000000000000000e+00  1.9500574857205704e+00 3.3365113194552287e-01 0.0000000000000000e+00  1.6181987837104079e+00 1.0447850510573828e+00 0.0000000000000000e+00  8.5418012881444683e-01 3.5789803788915707e-03 0.0000000000000000e+00  9.2457746277428676e-01 -8.5490503846959668e-03 0.0000000000000000e+00  1.0229955420944830e+00 1.1433634767506393e-03 0.0000000000000000e+00  7.1516219311365359e-01 1.5887149058082767e-02 0.0000000000000000e+00  1.0835922335484731e+00 1.1847649127955688e-03 0.0000000000000000e+00  1.7052791404711727e+00 4.6819548100349023e-01 0.0000000000000000e+00  -1.2433866221022652e-01 3.8434398215633125e-01 0.0000000000000000e+00  1.1222872450116770e+00 1.0159214137799256e-02 0.0000000000000000e+00  1.0164283989407337e+00 2.0566119259483235e-03 0.0000000000000000e+00  1.1588545498212774e+00 4.1926948845656464e-01 0.0000000000000000e+00  1.0895576315192865e+00 3.8560473494206115e-04 0.0000000000000000e+00  1.0809141570661720e+00 3.4700422587656679e-04 0.0000000000000000e+00  1.0945501423096033e+00 6.0034077615689992e-04 0.0000000000000000e+00  1.0734504135727294e+00 -2.3673648120401878e-04 0.0000000000000000e+00  1.0689678958505824e+00 -2.4765182990895496e-03 0.0000000000000000e+00  1.0868642483389905e+00 -2.0095202220635172e-03 0.0000000000000000e+00  1.0405914824775517e+00 6.6901050998038338e-04 0.0000000000000000e+00  1.0786846018314167e+00 -3.3182871740150607e-03 0.0000000000000000e+00  1.0818727700472250e+00 -2.5078581119032891e-03 0.0000000000000000e+00  1.0825628172688371e+00 -3.7739955101560724e-03 0.0000000000000000e+00  1.0619454468042995e+00 2.6615074674088109e-03 0.0000000000000000e+00  1.0543949283611576e+00 2.4012230682651996e-03 0.0000000000000000e+00  6.5625008884914626e-01 0.0000000000000000e+00 0.0000000000000000e+00  8.6330522901275042e-01 -2.6934191549770396e-02 0.0000000000000000e+00  1.0796701538559834e+00 4.0139919941688555e-03 0.0000000000000000e+00  3.8790587632943624e-01 2.2915584945435129e-02 0.0000000000000000e+00  1.0867298431236989e+00 1.1017371794944341e-03 0.0000000000000000e+00  1.0642093273648212e+00 -4.7487250795057233e-04 0.0000000000000000e+00  1.0804088384750683e+00 -3.2846737141521221e-04 0.0000000000000000e+00  1.0682470347699629e+00 -3.7614092553534445e-04 0.0000000000000000e+00  1.0883439059018853e+00 -1.8112131186725344e-03 0.0000000000000000e+00  1.0823128280835592e+00 4.9273479088675083e-04 0.0000000000000000e+00  1.1427483347026095e+00 -1.1339401810987051e-02 0.0000000000000000e+00  1.0130678566964531e+00 1.2496897716070607e-01 0.0000000000000000e+00  1.0886557235716179e+00 1.6719355106798684e-03 0.0000000000000000e+00  1.1295079012525213e+00 1.1866012595831121e-01 0.0000000000000000e+00  1.1037233934459683e+00 -2.4195713366323091e-02 0.0000000000000000e+00  1.1308358459628893e+00 -1.3525517355443697e-01 0.0000000000000000e+00  9.8104835264246981e-01 1.4741254053760333e-01 0.0000000000000000e+00  1.2346097125874442e+00 -1.9978516214057221e-01 0.0000000000000000e+00  1.1027183318355607e+00 -1.4512375423586081e-03 0.0000000000000000e+00  1.0766332533184939e+00 -1.2166073912953986e-03 0.0000000000000000e+00  1.8667651462388393e+00 -3.5268175443456024e-01 0.0000000000000000e+00  -8.4734361443856354e-01 -3.5406284956865169e-01 0.0000000000000000e+00  1.0801369384053507e+00 -6.9052480930337700e-04 0.0000000000000000e+00  1.4568331026403363e+00 -5.8997326317050222e-02 0.0000000000000000e+00  1.0780163205590554e+00 -5.0346705793752691e-04 0.0000000000000000e+00  1.0759937510610695e+00 -2.5333829192891338e-03 0.0000000000000000e+00  1.0838768744653566e+00 9.9663777249976260e-04 0.0000000000000000e+00  1.0874774013312154e+00 1.2954044049016450e-03 0.0000000000000000e+00  1.0911712038085488e+00 1.5560928746328245e-03 0.0000000000000000e+00  1.0866437747327902e+00 -2.0097456065841296e-03 0.0000000000000000e+00  1.0727515375089836e+00 -2.2251525781364859e-03 0.0000000000000000e+00  1.0839387717733704e+00 1.6853482654124923e-03 0.0000000000000000e+00  1.0775378323395961e+00 -3.4757437073944090e-03 0.0000000000000000e+00  1.1233802614675565e+00 -2.9285002930738938e-03 0.0000000000000000e+00  1.0815552438632103e+00 -1.6591001759838726e-03 0.0000000000000000e+00  1.0862008038539088e+00 -1.3622980582455738e-03 0.0000000000000000e+00  1.0896996405564174e+00 -1.3355027792826319e-02 0.0000000000000000e+00  1.0841206933172514e+00 1.1483556217141984e-02 0.0000000000000000e+00  1.0892848778576341e+00 3.2941945135849002e-03 0.0000000000000000e+00  1.0427715618010600e+00 -6.5286291927323780e-03 0.0000000000000000e+00  1.0847489072226146e+00 -4.1557534031713686e-03 0.0000000000000000e+00  1.0851732398156619e+00 -1.3176276721027652e-03 0.0000000000000000e+00  1.0819486770261058e+00 9.7097503051633014e-04 0.0000000000000000e+00  1.0854657494428794e+00 -1.3713630965045628e-03 0.0000000000000000e+00  1.0804974407874062e+00 1.9865632040805062e-03 0.0000000000000000e+00  1.0707199093612934e+00 -3.8994389179014739e-03 0.0000000000000000e+00  1.1067597074383875e+00 8.4880404839871321e-03 0.0000000000000000e+00  1.0641866379764289e+00 -4.1143105348177070e-03 0.0000000000000000e+00  1.0568267730408660e+00 1.2535259689500156e-03 0.0000000000000000e+00  1.0664849754455774e+00 2.5225623780496744e-03 0.0000000000000000e+00  1.0246850858434462e+00 -7.7040562727965306e-02 0.0000000000000000e+00  1.0768078869835229e+00 -2.2901838881231960e-03 0.0000000000000000e+00  1.2237338520392094e+00 -4.1820564459824366e-01 0.0000000000000000e+00  9.8679509795931464e-01 -4.8506895968909152e-03 0.0000000000000000e+00  1.0708797719271732e+00 2.3394750716177411e-02 0.0000000000000000e+00  1.0838790721231295e+00 -1.1067545222497273e-03 0.