<?xml version="1.0"?>
<VTKFile type="UnstructuredGrid"  version="0.1"  >
<UnstructuredGrid>
<Piece  NumberOfPoints="4269" NumberOfCells="8234">
<Points>
<DataArray  type="Float64"  NumberOfComponents="3"  format="ascii">0 1 0  0 0 0  7.5 0 0  7.5 1 0  1.197537668119028 0.5812868930080463 0  1.2 0.55 0  1.197537668119028 0.5187131069919538 0  1.190211303259031 0.4881966011250105 0  1.178201304837674 0.4592019000520907 0  1.161803398874989 0.4324429495415054 0  1.141421356237309 0.4085786437626905 0  1.117557050458495 0.3881966011250105 0  1.090798099947909 0.3717986951623264 0  1.06180339887499 0.3597886967409693 0  1.031286893008046 0.3524623318809725 0  1 0.35 0  0.9687131069919538 0.3524623318809725 0  0.9381966011250105 0.3597886967409694 0  0.9092019000520906 0.3717986951623264 0  0.8824429495415054 0.3881966011250105 0  0.8585786437626904 0.4085786437626905 0  0.8381966011250105 0.4324429495415054 0  0.8217986951623264 0.4592019000520907 0  0.8097886967409692 0.4881966011250107 0  0.8024623318809725 0.5187131069919539 0  0.8 0.55 0  0.8024623318809725 0.5812868930080463 0  0.8097886967409693 0.6118033988749896 0  0.8217986951623264 0.6407980999479095 0  0.8381966011250105 0.6675570504584947 0  0.8585786437626906 0.6914213562373096 0  0.8824429495415054 0.7118033988749896 0  0.9092019000520907 0.7282013048376736 0  0.9381966011250106 0.7402113032590307 0  0.9687131069919539 0.7475376681190276 0  1 0.75 0  1.031286893008046 0.7475376681190276 0  1.06180339887499 0.7402113032590307 0  1.090798099947909 0.7282013048376736 0  1.117557050458495 0.7118033988749896 0  1.141421356237309 0.6914213562373095 0  1.161803398874989 0.6675570504584947 0  1.178201304837674 0.6407980999479094 0  1.190211303259031 0.6118033988749896 0  3.75 0 0  3.75 1 0  1.875 0 0  1.875 1 0  0.9375 0 0  0.9375 1 0  1.40625 1 0  5.625 1 0  5.625 0 0  2.8125 1 0  2.8125 0 0  4.6875 0 0  4.6875 1 0  6.5625 0 0  6.5625 1 0  5.15625 0.5 0  4.21875 0.5 0  2.34375 0.5 0  3.28125 0.5 0  6.09375 0.5 0  7.5 0.5 0  6.897916666666666 0.5 0  1.842708333333333 0.5 0  0 0.5 0  0.46875 0 0  5.625 0.5302734375 0  7.03125 0 0  6.09375 1 0  2.8125 0.4697265625 0  3.28125 0 0  2.34375 1 0  2.34375 0 0  3.75 0.4697265625 0  4.21875 0 0  4.21875 1 0  4.6875 0.5302734375 0  3.28125 1 0  5.15625 0 0  6.09375 0 0  5.15625 1 0  0.46875 1 0  1.40625 0 0  7.03125 1 0  0.3954638734376499 0.5975780249976004 0  6.495833333333334 0.4072265624999998 0  5.859375 0.25 0  4.905729166666666 0.26513671875 0  4.453125 0.25 0  3.531770833333333 0.73486328125 0  3.968229166666667 0.73486328125 0  2.594270833333333 0.73486328125 0  3.030729166666667 0.73486328125 0  6.328125 0.75 0  7.198958333333334 0.3125000000000002 0  7.198958333333334 0.6874999999999998 0  5.390625 0.25 0  0 0.25 0  2.109375 0.75 0  2.109375 0.25 0  1.51921323205749 0.3418883887525936 0  1.522346610178253 0.6811769608297746 0  5.375456746419271 0.75 0  4.921875 0.76513671875 0  4.437956746419271 0.75 0  3.984375 0.23486328125 0  3.500456746419271 0.25 0  2.578125 0.23486328125 0  3.046875 0.23486328125 0  5.874543253580729 0.75 0  6.642123189445656 0.6909095493086836 0  6.746354166666666 0.2391688368055553 0  0.3197109619185111 0.2850049285972083 0  6.328125 0 0  0.6313375889370429 0.2351325552547357 0  0 0.75 0  6.252283381534729 0.2693808819694041 0  0.234375 1 0  6.948437500000001 0.7543055555555555 0  0.5934018769555939 0.7694151657947577 0  1.858854166666667 0.75 0  1.858854166666667 0.25 0  1.640625 0 0  2.093229166666667 0.5 0  7.5 0.25 0  3.282227579752604 0.75 0  7.5 0.75 0  1.171875 0 0  1.303539853147731 0.2235426933121065 0  5.148177083333333 0.2575683593749998 0  2.351822916666667 0.742431640625 0  1.640625 1 0  4.202380413457425 0.7645435094236485 0  3.047822985053062 0.4701848030090332 0  2.577177014946938 0.4701848030090332 0  4.672792740482199 0.76513671875 0  4.922822985053062 0.5298151969909668 0  5.390593497949761 0.5156244924311331 0  5.610292740482199 0.76513671875 0  3.516602579752604 0.5 0  4.45496853898097 0.4865915990446593 0  5.85753146101903 0.4865915990446593 0  3.749511210123698 0.23486328125 0  3.983397420247396 0.4999999999999999 0  2.343497975411212 0.2346270081980111 0  4.219002024588788 0.2346270081980111 0  0.703125 0 0  2.8125 0.2343755075688669 0  3.046875 0 0  2.578125 0 0  3.515625 0 0  3.984375 0 0  4.453125 1 0  5.390625 1 0  2.109375 0 0  2.109375 1 0  5.625 0.2921402030705575 0  5.390625 0 0  7.265625 0 0  6.796875 0 0  6.328125 1 0  3.046875 1 0  2.578125 1 0  3.984375 1 0  3.515625 1 0  4.453125 0 0  4.921875 0 0  5.859375 0 0  0.703125 1 0  1.171875 1 0  7.265625 1 0  4.921875 1 0  5.859375 1 0  0.234375 0 0  6.796875 1 0  6.980310975276531 0.2285890127127066 0  5.149170481934885 0.772689292163473 0  3.274170481934884 0.2273107078365268 0  6.101334126790364 0.7722468376159667 0  4.678005340872584 0.3000799877067239 0  2.8125 0.6921051326382495 0  3.75 0.6921051326382495 0  0.3515624999999999 0.8134571721668546 0  0.4990405774417521 0.4070099317153735 0  0.1789273931360182 0.625 0  6.31239060814315 0.5298877111157968 0  6.456979773992304 0.1917956348713352 0  6.699870808919271 0.4406293402777773 0  1.337539480965883 0.7944303676599538 0  6.058675797563041 0.2019812164653516 0  0.8203125 0.1643029084422534 0  0.1480856513011711 0.375 0  1.090769294689562 0.1719186776982972 0  7.291088163206459 0.5 0  7.094502414936563 0.5197902199074071 0  0.6046212059042245 0.5730066483871106 0  1.707231580809486 0.6342709161352207 0  1.685961352504593 0.8193269193390785 0  1.374721602852827 0.4600373025865813 0  6.486415510043844 0.5916440776477192 0  1.5234375 0.1508863828685116 0  1.707925830421689 0.3657739208189008 0  0.1674513225045584 0.8278776664019765 0  7.138268756771176 0.1438183366439137 0  7.1484375 0.8616388888888887 0  7.328562530764119 0.819498462930605 0  4.101073710123698 0.3678637200736647 0  1.693878467219965 0.1911955120941053 0  1.577566745468488 0.5110082404081502 0  6.6796875 0.8653871806883484 0  6.498039504430512 0.825568433346395 0  0.7562556668576472 0.8333197949571929 0  4.101045914668806 0.6255195807449272 0  5.030745188395182 0.382829047309028 0  2.476364945868651 0.6095868094762166 0  2.729359843907322 0.8460525663191247 0  2.9296875 0.8740763101564099 0  3.163518307559356 0.6254622797994247 0  3.666859843907322 0.8460525663191247 0  3.8671875 0.8740763101564099 0  4.8046875 0.12592368984359 0  3.14936031382311 0.8606990583876851 0  2.4609375 0.8747622921397776 0  5.023140791101972 0.1392266772452574 0  0 0.125 0  0.1759922923594607 0.1727589856739889 0  4.5703125 0.125 0  7.327755777818006 0.1766156770456191 0  5.5078125 0.125 0  5.719712725029036 0.1460701015352787 0  4.327848962028002 0.3674169956512513 0  5.982681121544351 0.3692637923021713 0  3.398926289876302 0.6245417594909667 0  5.281756792511996 0.3827993367299961 0  2.226822645963271 0.6252438868405666 0  2.234390064317166 0.8676616584526566 0  5.2734375 0.125 0  1.96796875 0.382568359375 0  2.234651037971999 0.3674169956512511 0  1.984114583333333 0.132568359375 0  1.9921875 0.875 0  1.984114583333333 0.632568359375 0  5.748733794462357 0.8678269127183313 0  3.3984375 0.875456329184688 0  1.512925924995415 0.8582958012121853 0  1.359299372802969 0.6275861864990343 0  4.810521420483513 0.4041767793635395 0  0.2996213306116602 0.455339710363317 0  5.999933717403708 0.6388425470751088 0  5.250033449003657 0.6388713364551682 0  3.631676045992918 0.3525406652400928 0  4.3359375 0.8816499670325881 0  4.343577437052484 0.6116511299909198 0  3.375033449003656 0.3611286635448316 0  5.763152151652243 0.6249404690537395 0  4.549347848347757 0.6249404690537396 0  5.5004588702411 0.6403667365776566 0  5.976118394847484 0.8816230218343086 0  5.054722486865804 0.6338007028640954 0  3.164542163493752 0.3520519332736524 0  2.445407482032355 0.3672168403687257 0  4.8046875 0.882568359375 0  4.1015625 0.117431640625 0  2.4609375 0.117431640625 0  2.695556894938151 0.3520510350344335 0  2.929443105061849 0.3520510350344335 0  3.881979231817319 0.3670559016511187 0  3.8671875 0.117431640625 0  4.805389247695744 0.6470047893641744 0  3.399370721942191 0.1184066543556767 0  5.274370721942192 0.881593345644323 0  3.618253274934649 0.1316869186284249 0  2.6953125 0.1171877537844335 0  2.9296875 0.1171877537844335 0  2.21873344389451 0.125 0  4.3359375 0.1171877625080073 0  0.6659898565672709 0.3986593551313873 0  7.363359022954956 0.3481046411219251 0  7.363359022954956 0.6518953588780749 0  5.487719392831826 0.3828237631077121 0  2.695054578344725 0.5809158475691247 0  2.944553877887707 0.5964065668438148 0  0.3515625 0.1201898858097106 0  5.5078125 1 0  4.5703125 1 0  5.031746201297604 0.882568359375 0  3.1640625 0 0  6.2109375 1 0  6.186845385763124 0.6336356480571081 0  4.1015625 1 0  6.810399074069772 0.6495574751396682 0  0.4740615253480797 0.2509287743856873 0  7.052064303830151 0.3684417917792242 0  6.195177069665382 0.1216488332168849 0  5.72300154718324 0.4112068202852788 0  3.879157465495092 0.6111892850691246 0  3.645760045247695 0.5809158475691247 0  6.868257400485771 0.3427840810237202 0  6.612030892260864 0.1521752713064389 0  6.615666885941117 0.3151079644097221 0  4.04296875 0.8633718902669071 0  1.183031453639096 0.8486801864185936 0  6.9140625 0 0  6.859079526500421 0.1398292786950638 0  6.808232443325651 0.7957411753922057 0  6.9140625 1 0  4.544955211100143 0.3675874343205077 0  1.0546875 1 0  6.122060236165557 0.3316791557072867 0  0.5859375 0 0  5.9765625 0 0  5.44921875 0.870984788733638 0  4.51171875 0.870984788733638 0  0.7608354256382215 0.2931261274224557 0  6.386875332239937 0.3156583003094978 0  6.985654756850997 0.6147408423643147 0  6.223797257919172 0.8535621912121121 0  5.936822413218736 0.1338376546337823 0  6.23933008800134 0.4095573603773768 0  0.5414022462152697 0.1305482677949959 0  6.331360438104348 0.1370086318183389 0  0.956404929269873 0.1374266563647954 0  1.2890625 1 0  0.691305981127761 0.6764829884281737 0  3.531251607241209 0.8678916320952239 0  2.59787442813022 
[...]
<PointData  Vectors="f_71627"> 
<DataArray  type="Float64"  Name="f_71627"  NumberOfComponents="3" format="ascii">0.0000000000000000e+00 0.0000000000000000e+00 0.0000000000000000e+00  0.0000000000000000e+00 0.0000000000000000e+00 0.0000000000000000e+00  0.0000000000000000e+00 0.0000000000000000e+00 0.0000000000000000e+00  0.0000000000000000e+00 0.0000000000000000e+00 0.0000000000000000e+00  0.0000000000000000e+00 0.0000000000000000e+00 0.0000000000000000e+00  0.0000000000000000e+00 0.0000000000000000e+00 0.0000000000000000e+00  0.0000000000000000e+00 0.0000000000000000e+00 0.0000000000000000e+00  0.0000000000000000e+00 0.0000000000000000e+00 0.0000000000000000e+00  0.0000000000000000e+00 0.0000000000000000e+00 0.0000000000000000e+00  0.0000000000000000e+00 0.0000000000000000e+00 0.0000000000000000e+00  0.0000000000000000e+00 0.0000000000000000e+00 0.0000000000000000e+00  0.0000000000000000e+00 0.0000000000000000e+00 0.0000000000000000e+00  0.0000000000000000e+00 0.0000000000000000e+00 0.0000000000000000e+00  0.0000000000000000e+00 0.0000000000000000e+00 0.0000000000000000e+00  0.0000000000000000e+00 0.0000000000000000e+00 0.0000000000000000e+00  0.0000000000000000e+00 0.0000000000000000e+00 0.0000000000000000e+00  0.0000000000000000e+00 0.0000000000000000e+00 0.0000000000000000e+00  0.0000000000000000e+00 0.0000000000000000e+00 0.0000000000000000e+00  0.0000000000000000e+00 0.0000000000000000e+00 0.0000000000000000e+00  0.0000000000000000e+00 0.0000000000000000e+00 0.0000000000000000e+00  0.0000000000000000e+00 0.0000000000000000e+00 0.0000000000000000e+00  0.0000000000000000e+00 0.0000000000000000e+00 0.0000000000000000e+00  0.0000000000000000e+00 0.0000000000000000e+00 0.0000000000000000e+00  0.0000000000000000e+00 0.0000000000000000e+00 0.0000000000000000e+00  0.0000000000000000e+00 0.0000000000000000e+00 0.0000000000000000e+00  0.0000000000000000e+00 0.0000000000000000e+00 0.0000000000000000e+00  0.0000000000000000e+00 0.0000000000000000e+00 0.0000000000000000e+00  0.0000000000000000e+00 0.0000000000000000e+00 0.0000000000000000e+00  0.0000000000000000e+00 0.0000000000000000e+00 0.0000000000000000e+00  0.0000000000000000e+00 0.0000000000000000e+00 0.0000000000000000e+00  0.0000000000000000e+00 0.0000000000000000e+00 0.0000000000000000e+00  0.0000000000000000e+00 0.0000000000000000e+00 0.0000000000000000e+00  0.0000000000000000e+00 0.0000000000000000e+00 0.0000000000000000e+00  0.0000000000000000e+00 0.0000000000000000e+00 0.0000000000000000e+00  0.0000000000000000e+00 0.0000000000000000e+00 0.0000000000000000e+00  0.0000000000000000e+00 0.0000000000000000e+00 0.0000000000000000e+00  0.0000000000000000e+00 0.0000000000000000e+00 0.0000000000000000e+00  0.0000000000000000e+00 0.0000000000000000e+00 0.0000000000000000e+00  0.0000000000000000e+00 0.0000000000000000e+00 0.0000000000000000e+00  0.0000000000000000e+00 0.0000000000000000e+00 0.0000000000000000e+00  0.0000000000000000e+00 0.0000000000000000e+00 0.0000000000000000e+00  0.0000000000000000e+00 0.0000000000000000e+00 0.0000000000000000e+00  0.0000000000000000e+00 0.0000000000000000e+00 0.0000000000000000e+00  0.0000000000000000e+00 0.0000000000000000e+00 0.0000000000000000e+00  0.0000000000000000e+00 0.0000000000000000e+00 0.0000000000000000e+00  0.0000000000000000e+00 0.0000000000000000e+00 0.0000000000000000e+00  0.0000000000000000e+00 0.0000000000000000e+00 0.0000000000000000e+00  0.0000000000000000e+00 0.0000000000000000e+00 0.0000000000000000e+00  0.0000000000000000e+00 0.0000000000000000e+00 0.0000000000000000e+00  0.0000000000000000e+00 0.0000000000000000e+00 0.0000000000000000e+00  0.0000000000000000e+00 0.0000000000000000e+00 0.0000000000000000e+00  0.0000000000000000e+00 0.0000000000000000e+00 0.0000000000000000e+00  0.0000000000000000e+00 0.0000000000000000e+00 0.0000000000000000e+00  0.0000000000000000e+00 0.0000000000000000e+00 0.0000000000000000e+00  0.0000000000000000e+00 0.0000000000000000e+00 0.0000000000000000e+00  0.0000000000000000e+00 0.0000000000000000e+00 0.0000000000000000e+00  0.0000000000000000e+00 0.0000000000000000e+00 0.0000000000000000e+00  0.0000000000000000e+00 0.0000000000000000e+00 0.0000000000000000e+00  0.0000000000000000e+00 0.0000000000000000e+00 0.0000000000000000e+00  1.1184427488586270e+00 5.0963255722794249e-04 0.0000000000000000e+00  1.1231401795705538e+00 -1.0976850953607153e-02 0.0000000000000000e+00  2.3108383407249793e+00 -1.0431453392952499e+00 0.0000000000000000e+00  9.8705762987265000e-01 -1.2403899042055910e-01 0.0000000000000000e+00  1.1175713116160597e+00 -1.0046872021931882e-03 0.0000000000000000e+00  1.5000002018589198e+00 0.0000000000000000e+00 0.0000000000000000e+00  1.1961259265020476e+00 -3.2583977863438291e-03 0.0000000000000000e+00  9.6145139850809946e-01 8.0081246288916696e-01 0.0000000000000000e+00  1.5000002018589198e+00 0.0000000000000000e+00 0.0000000000000000e+00  0.0000000000000000e+00 0.0000000000000000e+00 0.0000000000000000e+00  1.1251720407517938e+00 2.6234114894775227e-04 0.0000000000000000e+00  0.0000000000000000e+00 0.0000000000000000e+00 0.0000000000000000e+00  0.0000000000000000e+00 0.0000000000000000e+00 0.0000000000000000e+00  2.1418591336634916e+00 8.0890256306186836e-01 0.0000000000000000e+00  0.0000000000000000e+00 0.0000000000000000e+00 0.0000000000000000e+00  0.0000000000000000e+00 0.0000000000000000e+00 0.0000000000000000e+00  0.0000000000000000e+00 0.0000000000000000e+00 0.0000000000000000e+00  1.1094509045617451e+00 -7.7451128701247512e-02 0.0000000000000000e+00  0.0000000000000000e+00 0.0000000000000000e+00 0.0000000000000000e+00  0.0000000000000000e+00 0.0000000000000000e+00 0.0000000000000000e+00  1.1219727526477909e+00 -1.1034430557778929e-03 0.0000000000000000e+00  0.0000000000000000e+00 0.0000000000000000e+00 0.0000000000000000e+00  0.0000000000000000e+00 0.0000000000000000e+00 0.0000000000000000e+00  0.0000000000000000e+00 0.0000000000000000e+00 0.0000000000000000e+00  0.0000000000000000e+00 0.0000000000000000e+00 0.0000000000000000e+00  0.0000000000000000e+00 0.0000000000000000e+00 0.0000000000000000e+00  0.0000000000000000e+00 0.0000000000000000e+00 0.0000000000000000e+00  0.0000000000000000e+00 0.0000000000000000e+00 0.0000000000000000e+00  1.3636288967962364e+00 -5.3779305269240081e-02 0.0000000000000000e+00  1.1438383281446711e+00 -4.9492348606678177e-03 0.0000000000000000e+00  1.1226466822107122e+00 2.3094099910619271e-03 0.0000000000000000e+00  1.1074058279317964e+00 5.0031281079779429e-04 0.0000000000000000e+00  1.1018724496238552e+00 -1.3891954000795337e-03 0.0000000000000000e+00  1.2832856758859552e+00 -9.7092787906725042e-02 0.0000000000000000e+00  1.1484416406799811e+00 -1.8393565776160747e-02 0.0000000000000000e+00  6.4515740236001151e-01 7.6884002270283395e-03 0.0000000000000000e+00  1.1157255667970363e+00 7.7112396257885862e-01 0.0000000000000000e+00  1.1231555392384371e+00 -6.3771696147615128e-04 0.0000000000000000e+00  8.2916029612440045e-01 -2.2370874507834553e-03 0.0000000000000000e+00  9.6448219929813706e-01 1.5308935693094340e-02 0.0000000000000000e+00  1.1099422457560861e+00 4.7296366950230387e-04 0.0000000000000000e+00  1.1250001513941899e+00 0.0000000000000000e+00 0.0000000000000000e+00  1.2456754823004790e+00 -6.2321470160865322e-01 0.0000000000000000e+00  7.6424103512238239e-01 7.8073241017675668e-02 0.0000000000000000e+00  2.2725855466255043e+00 7.6436918935493048e-01 0.0000000000000000e+00  -6.6518987439839850e-01 -3.2146057058185951e-01 0.0000000000000000e+00  1.1206891285762317e+00 1.3880176327809265e-03 0.0000000000000000e+00  1.1246550173619760e+00 1.9329846989313789e-03 0.0000000000000000e+00  1.1267941012698957e+00 -2.2663926217963357e-03 0.0000000000000000e+00  1.0908128667096737e+00 -1.7971513204339179e-02 0.0000000000000000e+00  9.6978551259974144e-01 -9.2585596259383895e-02 0.0000000000000000e+00  1.7160725864846864e+00 4.2265206549845807e-01 0.0000000000000000e+00  5.9144066590888278e-01 -2.5259262422341566e-01 0.0000000000000000e+00  1.1255438219263081e+00 -2.7139729683249877e-03 0.0000000000000000e+00  1.1047680045538706e+00 -5.2449333722824935e-04 0.0000000000000000e+00  1.1216605988843869e+00 -9.9176562342047567e-03 0.0000000000000000e+00  1.2363380672820252e+00 -1.0319534330834061e-01 0.0000000000000000e+00  0.0000000000000000e+00 0.0000000000000000e+00 0.0000000000000000e+00  1.2776571731030035e+00 -3.3375600533927852e-01 0.0000000000000000e+00  1.1250001513941899e+00 0.0000000000000000e+00 0.0000000000000000e+00  1.1305614986103192e+00 5.5716518685463819e-03 0.0000000000000000e+00  0.0000000000000000e+00 0.0000000000000000e+00 0.0000000000000000e+00  1.2619026270129330e+00 -2.5407747965892390e-03 0.0000000000000000e+00  1.0155938652032219e+00 1.7848637306758369e-01 0.0000000000000000e+00  1.8033239109859163e+00 -3.3189626451123194e-01 0.0000000000000000e+00  1.2800876630026452e+00 3.4200976350668477e-01 0.0000000000000000e+00  0.0000000000000000e+00 0.0000000000000000e+00 0.0000000000000000e+00  1.5486624039195802e+00 -2.9582321949605506e-01 0.0000000000000000e+00  1.1250001513941899e+00 0.0000000000000000e+00 0.0000000000000000e+00  1.5164779615867310e+00 1.0259832980503929e-01 0.0000000000000000e+00  1.1250001513941899e+00 0.0000000000000000e+00 0.0000000000000000e+00  0.0000000000000000e+00 0.0000000000000000e+00 0.0000000000000000e+00  2.3749700846025026e+00 7.1452753132571781e-02 0.0000000000000000e+00  1.1120391587564644e+00 5.4159116286010324e-04 0.0000000000000000e+00  3.8512029861885905e-01 -4.1488004313169402e-01 0.0000000000000000e+00  0.0000000000000000e+00 0.0000000000000000e+00 0.0000000000000000e+00  1.1376358833049718e+00 -4.9192815294523701e-03 0.0000000000000000e+00  1.6300544003824711e+00 1.9446569458472168e-01 0.0000000000000000e+00  1.9788303533254497e+00 3.9143194802334080e-01 0.0000000000000000e+00  1.1264527359459693e+00 -1.8076482478485660e-04 0.0000000000000000e+00  1.1181421365940751e+00 1.9299991566334266e-04 0.0000000000000000e+00  1.1211156659488444e+00 1.5810548375143714e-03 0.0000000000000000e+00  1.1227759186678903e+00 1.5686531868202265e-03 0.0000000000000000e+00  1.0906850544851234e+00 -2.0013370430850702e-01 0.0000000000000000e+00  1.1185585485156848e+00 -3.6846797984573672e-03 0.0000000000000000e+00  1.1286207993111015e+00 1.4418601762768450e-04 0.0000000000000000e+00  1.0527771086136277e+00 -4.1169108172525774e-02 0.0000000000000000e+00  1.1257016887390241e+00 -2.8963558229975005e-02 0.0000000000000000e+00  8.3102595566406223e-01 -4.7895989421819207e-01 0.0000000000000000e+00  1.0982764000364660e+00 -6.7088322337702016e-03 0.0000000000000000e+00  0.0000000000000000e+00 0.0000000000000000e+00 0.0000000000000000e+00  7.8314681195293734e-01 3.0892854874967723e-01 0.0000000000000000e+00  0.0000000000000000e+00 0.0000000000000000e+00 0.0000000000000000e+00  0.0000000000000000e+00 0.0000000000000000e+00 0.0000000000000000e+00  0.0000000000000000e+00 0.0000000000000000e+00 0.0000000000000000e+00  0.0000000000000000e+00 0.0000000000000000e+00 0.0000000000000000e+00  0.0000000000000000e+00 0.0000000000000000e+00 0.0000000000000000e+00  0.0000000000000000e+00 0.0000000000000000e+00 0.0000000000000000e+00  0.0000000000000000e+00 0.0000000000000000e+00 0.0000000000000000e+00  0.0000000000000000e+00 0.0000000000000000e+00 0.0000000000000000e+00  1.1128471799469175e+00 8.0941877467094112e-04 0.0000000000000000e+00  0.0000000000000000e+00 0.0000000000000000e+00 0.0000000000000000e+00  0.0000000000000000e+00 0.0000000000000000e+00 0.0000000000000000e+00  0.0000000000000000e+00 0.0000000000000000e+00 0.0000000000000000e+00  0.0000000000000000e+00 0.0000000000000000e+00 0.0000000000000000e+00  0.0000000000000000e+00 0.0000000000000000e+00 0.0000000000000000e+00  0.0000000000000000e+00 0.0000000000000000e+00 0.0000000000000000e+00  0.0000000000000000e+00 0.0000000000000000e+00 0.0000000000000000e+00  0.0000000000000000e+00 0.0000000000000000e+00 0.0000000000000000e+00  0.0000000000000000e+00 0.0000000000000000e+00 0.0000000000000000e+00  0.0000000000000000e+00 0.0000000000000000e+00 0.0000000000000000e+00  0.0000000000000000e+00 0.0000000000000000e+00 0.0000000000000000e+00  0.0000000000000000e+00 0.0000000000000000e+00 0.0000000000000000e+00  0.0000000000000000e+00 0.0000000000000000e+00 0.0000000000000000e+00  0.0000000000000000e+00 0.0000000000000000e+00 0.0000000000000000e+00  0.0000000000000000e+00 0.0000000000000000e+00 0.0000000000000000e+00  0.0000000000000000e+00 0.0000000000000000e+00 0.0000000000000000e+00  0.0000000000000000e+00 0.0000000000000000e+00 0.0000000000000000e+00  0.0000000000000000e+00 0.0000000000000000e+00 0.0000000000000000e+00  1.1663991190648340e+00 -1.1398269077746326e-03 0.0000000000000000e+00  1.1220690815101684e+00 2.7363116966649041e-03 0.0000000000000000e+00  8.3164747212444945e-01 -1.4765225926239606e-01 0.0000000000000000e+00  1.1239702961796829e+00 1.4809687887606252e-03 0.0000000000000000e+00  1.1099469441599474e+00 -1.3727138844480326e-03 0.0000000000000000e+00  1.4398152583986932e+00 6.4481341359381439e-01 0.0000000000000000e+00  1.1753811663011446e+00 -5.8422328314418015e-02 0.0000000000000000e+00  8.9804313880814501e-01 6.7523208965827074e-03 0.0000000000000000e+00  1.3622635687391547e+00 -2.0735210069552745e-01 0.0000000000000000e+00  1.3941980919314232e+00 -2.1213435219633574e-02 0.0000000000000000e+00  1.1188655544783510e+00 -1.5804833430917735e-03 0.0000000000000000e+00  1.1445369264730449e+00 -3.2114331983366822e-03 0.0000000000000000e+00  1.1765566810058015e+00 -8.1996687402725189e-03 0.0000000000000000e+00  1.6405101909348896e+00 -1.2795595898693313e-01 0.0000000000000000e+00  1.1273492268618421e+00 -3.7465074406462296e-03 0.0000000000000000e+00  1.5073226514985743e+00 -3.5529757568591697e-01 0.0000000000000000e+00  1.4048733531935211e+00 -3.2109144313516240e-02 0.0000000000000000e+00  2.0833373402665298e+00 -1.4039318030174408e-01 0.0000000000000000e+00  1.3840376673690731e+00 1.7218862153139496e-03 0.0000000000000000e+00  1.3554596482451682e+00 3.8537109263097257e-03 0.0000000000000000e+00  1.1420088758560778e+00 -2.9792949016592588e-02 0.0000000000000000e+00  -3.3386909202227572e-01 6.6972172503043526e-01 0.0000000000000000e+00  1.8223764288410802e+00 -2.4761441744151516e-01 0.0000000000000000e+00  3.1094196779757155e-01 -3.9816377728350971e-01 0.0000000000000000e+00  1.1247569299909914e+00 -2.8851447521409178e-03 0.0000000000000000e+00  1.9008050573723569e+00 3.7395552890340850e-01 0.0000000000000000e+00  1.7231380300058770e+00 1.1013163798548091e+00 0.0000000000000000e+00  8.5014287111127274e-01 -4.8980925038831875e-03 0.0000000000000000e+00  9.1676226007595907e-01 -4.6283344503056855e-03 0.0000000000000000e+00  1.0283302099867206e+00 -3.3776955283159400e-04 0.0000000000000000e+00  7.8852992367483288e-01 1.7345211385306682e-03 0.0000000000000000e+00  1.1075711667325980e+00 -1.4921230829144263e-02 0.0000000000000000e+00  1.6399673979876086e+00 4.9399078286900661e-01 0.0000000000000000e+00  4.4360322786577899e-01 3.8431865566293827e-01 0.0000000000000000e+00  1.1157057339752194e+00 7.0864624571530073e-03 0.0000000000000000e+00  1.0567137712819343e+00 -4.1343667677516587e-03 0.0000000000000000e+00  1.0921032926795655e+00 3.9472433514721211e-01 0.0000000000000000e+00  1.1362454221478886e+00 -1.5581413385846609e-02 0.0000000000000000e+00  1.1165393654162510e+00 3.7288933041659041e-04 0.0000000000000000e+00  1.1249512529997672e+00 -1.3113126573510565e-02 0.0000000000000000e+00  -2.4318953693869766e-01 3.2643006704989380e-01 0.0000000000000000e+00  5.5261869353368143e-01 4.1053195925843211e-01 0.0000000000000000e+00  1.3668577957064749e+00 2.5085176243197121e-01 0.0000000000000000e+00  1.1744375155770850e+00 -2.3524754412806825e-02 0.0000000000000000e+00  1.0861401010149909e+00 -6.4303112702114376e-03 0.0000000000000000e+00  1.0496810873934928e+00 1.0540252677488412e-03 0.0000000000000000e+00  1.2813171421795593e+00 9.9971625633180447e-02 0.0000000000000000e+00  -8.7315234358457700e-02 -1.6225942879684782e-01 0.0000000000000000e+00  1.0761465029099586e+00 2.0885222467610289e-03 0.0000000000000000e+00  6.5625008831327747e-01 0.0000000000000000e+00 0.0000000000000000e+00  8.6594074696303380e-01 -3.3836370321415531e-02 0.0000000000000000e+00  1.0446699215657593e+00 -2.0483774393669909e-04 0.0000000000000000e+00  5.2758416028217769e-01 2.8038737248965027e-02 0.0000000000000000e+00  1.0579492906909520e+00 1.8558057881126466e-03 0.0000000000000000e+00  1.0900199775311625e+00 -1.7811508946747668e-03 0.0000000000000000e+00  1.1101397003355902e+00 -6.8819128408074762e-03 0.0000000000000000e+00  1.1072303381951154e+00 -2.0921122183686610e-03 0.0000000000000000e+00  1.1779390808126355e+00 -4.7770787675962145e-01 0.0000000000000000e+00  1.1173913613606441e+00 9.2498993725810541e-04 0.0000000000000000e+00  1.7351893747568436e+00 -1.0744244095632551e+00 0.0000000000000000e+00  3.6534673948897178e-01 -8.2047340771199101e-02 0.0000000000000000e+00  1.0597197571544614e+00 -2.3384920371621144e-04 0.0000000000000000e+00  1.0936078928075166e+00 3.3304374981682061e-01 0.0000000000000000e+00  1.4533470542129210e+00 -6.2767453947539964e-01 0.0000000000000000e+00  8.3332512293866623e-01 -2.6850639096149202e-02 0.0000000000000000e+00  5.8432414283744816e-01 2.1211725708752502e-02 0.0000000000000000e+00  1.5548741532454153e+00 -3.2805846185218646e-01 0.0000000000000000e+00  1.0754106459878128e+00 -8.2948263888486134e-04 0.0000000000000000e+00  1.2392581357635473e+00 -8.6846091370787845e-02 0.0000000000000000e+00  1.8025427785903834e+00 -1.9402018524582174e-01 0.0000000000000000e+00  -9.3555156871545153e-01 -4.7512484094637591e-01 0.0000000000000000e+00  1.1157069794595926e+00 -5.8558395157766712e-04 0.0000000000000000e+00  1.4597207335629248e+00 -8.1900854209199112e-02 0.0000000000000000e+00  1.1217659650842149e+00 6.0978708893904990e-04 0.0000000000000000e+00  1.1236821083582200e+00 9.5744917629281983e-04 0.0000000000000000e+00  1.0456481121269892e+00 -9.4971251523252184e-02 0.0000000000000000e+00  1.0482408664347018e+00 2.1572274562517224e-03 0.0000000000000000e+00  1.1303037567113496e+00 -6.9444190803214061e-03 0.0000000000000000e+00  9.3397678738371670e-01 -1.8303992223118765e-01 0.0000000000000000e+00  1.1247731487949644e+00 -6.2301796900904132e-04 0.0000000000000000e+00  1.1235283303204084e+00 -1.7938966468619723e-03 0.0000000000000000e+00  1.1273968127545464e+00 -5.0358621786006515e-04 0.0000000000000000e+00  1.0544915623809830e+00 1.7924868066634667e-03 0.0000000000000000e+00  1.1258544346901875e+00 5.8252597716475587e-04 0.0000000000000000e+00  9.1017495126524317e-01 -3.0355059609787310e-01 0.0000000000000000e+00  2.0301129039185266e+00 -5.1408713036194420e-01 0.0000000000000000e+00  1.0344787715401369e+00 1.7959203729802408e-03 0.0000000000000000e+00  1.0216251704811146e+00 -4.4561518740009977e-03 0.0000000000000000e+00  8.4936346832106691e-01 -1.6231857548858752e-02 0.0000000000000000e+00  2.1532082703875410e+00 8.3509251200452572e-01 0.0000000000000000e+00  1.4113221761379506e+00 3.0001675297415042e-01 0.0000000000000000e+00  1.0935492640051654e+00 -3.8673022941298638e-02 0.0000000000000000e+00  1.0079343384515635e+00 -8.1267112054507692e-03 0.0000000000000000e+00  1.1258274906603678e+00 -5.4624202855013530e-04 0.0000000000000000e+00  8.6751000909288167e-01 -4.1952601471811325e-02 0.0000000000000000e+00  1.0405585148072705e+00 1.9699860533366098e-03 0.0000000000000000e+00  9.7090200176233876e-01 -2.7278549067727139e-02 0.0000000000000000e+00  5.4780334683452991e-01 1.3035780880803546e-01 0.0000000000000000e+00  3.9351408374856839e-01 -5.0821690015331239e-02 0.0000000000000000e+00  8.9131389841617081e-01 -1.0870366712003841e-01 0.0000000000000000e+00  1.0267449047744150e+00 -2.5642859494712858e-03 0.0000000000000000e+00  1.2472899478539452e+00 -4.6238778324569907e-01 0.0000000000000000e+00  9.9760096539300880e-01 -8.0480378211767387e-03 0.0000000000000000e+00  1.0843223866248852e+00 1.1843689529888204e-02 0.0000000000000000e+00  1.1171997752583542e+00 -2.181214634818