<?xml version="1.0"?>
<VTKFile type="UnstructuredGrid"  version="0.1"  >
<UnstructuredGrid>
<Piece  NumberOfPoints="4269" NumberOfCells="8234">
<Points>
<DataArray  type="Float64"  NumberOfComponents="3"  format="ascii">0 1 0  0 0 0  7.5 0 0  7.5 1 0  1.197537668119028 0.5812868930080463 0  1.2 0.55 0  1.197537668119028 0.5187131069919538 0  1.190211303259031 0.4881966011250105 0  1.178201304837674 0.4592019000520907 0  1.161803398874989 0.4324429495415054 0  1.141421356237309 0.4085786437626905 0  1.117557050458495 0.3881966011250105 0  1.090798099947909 0.3717986951623264 0  1.06180339887499 0.3597886967409693 0  1.031286893008046 0.3524623318809725 0  1 0.35 0  0.9687131069919538 0.3524623318809725 0  0.9381966011250105 0.3597886967409694 0  0.9092019000520906 0.3717986951623264 0  0.8824429495415054 0.3881966011250105 0  0.8585786437626904 0.4085786437626905 0  0.8381966011250105 0.4324429495415054 0  0.8217986951623264 0.4592019000520907 0  0.8097886967409692 0.4881966011250107 0  0.8024623318809725 0.5187131069919539 0  0.8 0.55 0  0.8024623318809725 0.5812868930080463 0  0.8097886967409693 0.6118033988749896 0  0.8217986951623264 0.6407980999479095 0  0.8381966011250105 0.6675570504584947 0  0.8585786437626906 0.6914213562373096 0  0.8824429495415054 0.7118033988749896 0  0.9092019000520907 0.7282013048376736 0  0.9381966011250106 0.7402113032590307 0  0.9687131069919539 0.7475376681190276 0  1 0.75 0  1.031286893008046 0.7475376681190276 0  1.06180339887499 0.7402113032590307 0  1.090798099947909 0.7282013048376736 0  1.117557050458495 0.7118033988749896 0  1.141421356237309 0.6914213562373095 0  1.161803398874989 0.6675570504584947 0  1.178201304837674 0.6407980999479094 0  1.190211303259031 0.6118033988749896 0  3.75 0 0  3.75 1 0  1.875 0 0  1.875 1 0  0.9375 0 0  0.9375 1 0  1.40625 1 0  5.625 1 0  5.625 0 0  2.8125 1 0  2.8125 0 0  4.6875 0 0  4.6875 1 0  6.5625 0 0  6.5625 1 0  5.15625 0.5 0  4.21875 0.5 0  2.34375 0.5 0  3.28125 0.5 0  6.09375 0.5 0  7.5 0.5 0  6.897916666666666 0.5 0  1.842708333333333 0.5 0  0 0.5 0  0.46875 0 0  5.625 0.5302734375 0  7.03125 0 0  6.09375 1 0  2.8125 0.4697265625 0  3.28125 0 0  2.34375 1 0  2.34375 0 0  3.75 0.4697265625 0  4.21875 0 0  4.21875 1 0  4.6875 0.5302734375 0  3.28125 1 0  5.15625 0 0  6.09375 0 0  5.15625 1 0  0.46875 1 0  1.40625 0 0  7.03125 1 0  0.3954638734376499 0.5975780249976004 0  6.495833333333334 0.4072265624999998 0  5.859375 0.25 0  4.905729166666666 0.26513671875 0  4.453125 0.25 0  3.531770833333333 0.73486328125 0  3.968229166666667 0.73486328125 0  2.594270833333333 0.73486328125 0  3.030729166666667 0.73486328125 0  6.328125 0.75 0  7.198958333333334 0.3125000000000002 0  7.198958333333334 0.6874999999999998 0  5.390625 0.25 0  0 0.25 0  2.109375 0.75 0  2.109375 0.25 0  1.51921323205749 0.3418883887525936 0  1.522346610178253 0.6811769608297746 0  5.375456746419271 0.75 0  4.921875 0.76513671875 0  4.437956746419271 0.75 0  3.984375 0.23486328125 0  3.500456746419271 0.25 0  2.578125 0.23486328125 0  3.046875 0.23486328125 0  5.874543253580729 0.75 0  6.642123189445656 0.6909095493086836 0  6.746354166666666 0.2391688368055553 0  0.3197109619185111 0.2850049285972083 0  6.328125 0 0  0.6313375889370429 0.2351325552547357 0  0 0.75 0  6.252283381534729 0.2693808819694041 0  0.234375 1 0  6.948437500000001 0.7543055555555555 0  0.5934018769555939 0.7694151657947577 0  1.858854166666667 0.75 0  1.858854166666667 0.25 0  1.640625 0 0  2.093229166666667 0.5 0  7.5 0.25 0  3.282227579752604 0.75 0  7.5 0.75 0  1.171875 0 0  1.303539853147731 0.2235426933121065 0  5.148177083333333 0.2575683593749998 0  2.351822916666667 0.742431640625 0  1.640625 1 0  4.202380413457425 0.7645435094236485 0  3.047822985053062 0.4701848030090332 0  2.577177014946938 0.4701848030090332 0  4.672792740482199 0.76513671875 0  4.922822985053062 0.5298151969909668 0  5.390593497949761 0.5156244924311331 0  5.610292740482199 0.76513671875 0  3.516602579752604 0.5 0  4.45496853898097 0.4865915990446593 0  5.85753146101903 0.4865915990446593 0  3.749511210123698 0.23486328125 0  3.983397420247396 0.4999999999999999 0  2.343497975411212 0.2346270081980111 0  4.219002024588788 0.2346270081980111 0  0.703125 0 0  2.8125 0.2343755075688669 0  3.046875 0 0  2.578125 0 0  3.515625 0 0  3.984375 0 0  4.453125 1 0  5.390625 1 0  2.109375 0 0  2.109375 1 0  5.625 0.2921402030705575 0  5.390625 0 0  7.265625 0 0  6.796875 0 0  6.328125 1 0  3.046875 1 0  2.578125 1 0  3.984375 1 0  3.515625 1 0  4.453125 0 0  4.921875 0 0  5.859375 0 0  0.703125 1 0  1.171875 1 0  7.265625 1 0  4.921875 1 0  5.859375 1 0  0.234375 0 0  6.796875 1 0  6.980310975276531 0.2285890127127066 0  5.149170481934885 0.772689292163473 0  3.274170481934884 0.2273107078365268 0  6.101334126790364 0.7722468376159667 0  4.678005340872584 0.3000799877067239 0  2.8125 0.6921051326382495 0  3.75 0.6921051326382495 0  0.3515624999999999 0.8134571721668546 0  0.4990405774417521 0.4070099317153735 0  0.1789273931360182 0.625 0  6.31239060814315 0.5298877111157968 0  6.456979773992304 0.1917956348713352 0  6.699870808919271 0.4406293402777773 0  1.337539480965883 0.7944303676599538 0  6.058675797563041 0.2019812164653516 0  0.8203125 0.1643029084422534 0  0.1480856513011711 0.375 0  1.090769294689562 0.1719186776982972 0  7.291088163206459 0.5 0  7.094502414936563 0.5197902199074071 0  0.6046212059042245 0.5730066483871106 0  1.707231580809486 0.6342709161352207 0  1.685961352504593 0.8193269193390785 0  1.374721602852827 0.4600373025865813 0  6.486415510043844 0.5916440776477192 0  1.5234375 0.1508863828685116 0  1.707925830421689 0.3657739208189008 0  0.1674513225045584 0.8278776664019765 0  7.138268756771176 0.1438183366439137 0  7.1484375 0.8616388888888887 0  7.328562530764119 0.819498462930605 0  4.101073710123698 0.3678637200736647 0  1.693878467219965 0.1911955120941053 0  1.577566745468488 0.5110082404081502 0  6.6796875 0.8653871806883484 0  6.498039504430512 0.825568433346395 0  0.7562556668576472 0.8333197949571929 0  4.101045914668806 0.6255195807449272 0  5.030745188395182 0.382829047309028 0  2.476364945868651 0.6095868094762166 0  2.729359843907322 0.8460525663191247 0  2.9296875 0.8740763101564099 0  3.163518307559356 0.6254622797994247 0  3.666859843907322 0.8460525663191247 0  3.8671875 0.8740763101564099 0  4.8046875 0.12592368984359 0  3.14936031382311 0.8606990583876851 0  2.4609375 0.8747622921397776 0  5.023140791101972 0.1392266772452574 0  0 0.125 0  0.1759922923594607 0.1727589856739889 0  4.5703125 0.125 0  7.327755777818006 0.1766156770456191 0  5.5078125 0.125 0  5.719712725029036 0.1460701015352787 0  4.327848962028002 0.3674169956512513 0  5.982681121544351 0.3692637923021713 0  3.398926289876302 0.6245417594909667 0  5.281756792511996 0.3827993367299961 0  2.226822645963271 0.6252438868405666 0  2.234390064317166 0.8676616584526566 0  5.2734375 0.125 0  1.96796875 0.382568359375 0  2.234651037971999 0.3674169956512511 0  1.984114583333333 0.132568359375 0  1.9921875 0.875 0  1.984114583333333 0.632568359375 0  5.748733794462357 0.8678269127183313 0  3.3984375 0.875456329184688 0  1.512925924995415 0.8582958012121853 0  1.359299372802969 0.6275861864990343 0  4.810521420483513 0.4041767793635395 0  0.2996213306116602 0.455339710363317 0  5.999933717403708 0.6388425470751088 0  5.250033449003657 0.6388713364551682 0  3.631676045992918 0.3525406652400928 0  4.3359375 0.8816499670325881 0  4.343577437052484 0.6116511299909198 0  3.375033449003656 0.3611286635448316 0  5.763152151652243 0.6249404690537395 0  4.549347848347757 0.6249404690537396 0  5.5004588702411 0.6403667365776566 0  5.976118394847484 0.8816230218343086 0  5.054722486865804 0.6338007028640954 0  3.164542163493752 0.3520519332736524 0  2.445407482032355 0.3672168403687257 0  4.8046875 0.882568359375 0  4.1015625 0.117431640625 0  2.4609375 0.117431640625 0  2.695556894938151 0.3520510350344335 0  2.929443105061849 0.3520510350344335 0  3.881979231817319 0.3670559016511187 0  3.8671875 0.117431640625 0  4.805389247695744 0.6470047893641744 0  3.399370721942191 0.1184066543556767 0  5.274370721942192 0.881593345644323 0  3.618253274934649 0.1316869186284249 0  2.6953125 0.1171877537844335 0  2.9296875 0.1171877537844335 0  2.21873344389451 0.125 0  4.3359375 0.1171877625080073 0  0.6659898565672709 0.3986593551313873 0  7.363359022954956 0.3481046411219251 0  7.363359022954956 0.6518953588780749 0  5.487719392831826 0.3828237631077121 0  2.695054578344725 0.5809158475691247 0  2.944553877887707 0.5964065668438148 0  0.3515625 0.1201898858097106 0  5.5078125 1 0  4.5703125 1 0  5.031746201297604 0.882568359375 0  3.1640625 0 0  6.2109375 1 0  6.186845385763124 0.6336356480571081 0  4.1015625 1 0  6.810399074069772 0.6495574751396682 0  0.4740615253480797 0.2509287743856873 0  7.052064303830151 0.3684417917792242 0  6.195177069665382 0.1216488332168849 0  5.72300154718324 0.4112068202852788 0  3.879157465495092 0.6111892850691246 0  3.645760045247695 0.5809158475691247 0  6.868257400485771 0.3427840810237202 0  6.612030892260864 0.1521752713064389 0  6.615666885941117 0.3151079644097221 0  4.04296875 0.8633718902669071 0  1.183031453639096 0.8486801864185936 0  6.9140625 0 0  6.859079526500421 0.1398292786950638 0  6.808232443325651 0.7957411753922057 0  6.9140625 1 0  4.544955211100143 0.3675874343205077 0  1.0546875 1 0  6.122060236165557 0.3316791557072867 0  0.5859375 0 0  5.9765625 0 0  5.44921875 0.870984788733638 0  4.51171875 0.870984788733638 0  0.7608354256382215 0.2931261274224557 0  6.386875332239937 0.3156583003094978 0  6.985654756850997 0.6147408423643147 0  6.223797257919172 0.8535621912121121 0  5.936822413218736 0.1338376546337823 0  6.23933008800134 0.4095573603773768 0  0.5414022462152697 0.1305482677949959 0  6.331360438104348 0.1370086318183389 0  0.956404929269873 0.1374266563647954 0  1.2890625 1 0  0.691305981127761 0.6764829884281737 0  3.531251607241209 0.8678916320952239 0  2.59787442813022 
[...]
<PointData  Vectors="f_71627"> 
<DataArray  type="Float64"  Name="f_71627"  NumberOfComponents="3" format="ascii">0.0000000000000000e+00 0.0000000000000000e+00 0.0000000000000000e+00  0.0000000000000000e+00 0.0000000000000000e+00 0.0000000000000000e+00  0.0000000000000000e+00 0.0000000000000000e+00 0.0000000000000000e+00  0.0000000000000000e+00 0.0000000000000000e+00 0.0000000000000000e+00  0.0000000000000000e+00 0.0000000000000000e+00 0.0000000000000000e+00  0.0000000000000000e+00 0.0000000000000000e+00 0.0000000000000000e+00  0.0000000000000000e+00 0.0000000000000000e+00 0.0000000000000000e+00  0.0000000000000000e+00 0.0000000000000000e+00 0.0000000000000000e+00  0.0000000000000000e+00 0.0000000000000000e+00 0.0000000000000000e+00  0.0000000000000000e+00 0.0000000000000000e+00 0.0000000000000000e+00  0.0000000000000000e+00 0.0000000000000000e+00 0.0000000000000000e+00  0.0000000000000000e+00 0.0000000000000000e+00 0.0000000000000000e+00  0.0000000000000000e+00 0.0000000000000000e+00 0.0000000000000000e+00  0.0000000000000000e+00 0.0000000000000000e+00 0.0000000000000000e+00  0.0000000000000000e+00 0.0000000000000000e+00 0.0000000000000000e+00  0.0000000000000000e+00 0.0000000000000000e+00 0.0000000000000000e+00  0.0000000000000000e+00 0.0000000000000000e+00 0.0000000000000000e+00  0.0000000000000000e+00 0.0000000000000000e+00 0.0000000000000000e+00  0.0000000000000000e+00 0.0000000000000000e+00 0.0000000000000000e+00  0.0000000000000000e+00 0.0000000000000000e+00 0.0000000000000000e+00  0.0000000000000000e+00 0.0000000000000000e+00 0.0000000000000000e+00  0.0000000000000000e+00 0.0000000000000000e+00 0.0000000000000000e+00  0.0000000000000000e+00 0.0000000000000000e+00 0.0000000000000000e+00  0.0000000000000000e+00 0.0000000000000000e+00 0.0000000000000000e+00  0.0000000000000000e+00 0.0000000000000000e+00 0.0000000000000000e+00  0.0000000000000000e+00 0.0000000000000000e+00 0.0000000000000000e+00  0.0000000000000000e+00 0.0000000000000000e+00 0.0000000000000000e+00  0.0000000000000000e+00 0.0000000000000000e+00 0.0000000000000000e+00  0.0000000000000000e+00 0.0000000000000000e+00 0.0000000000000000e+00  0.0000000000000000e+00 0.0000000000000000e+00 0.0000000000000000e+00  0.0000000000000000e+00 0.0000000000000000e+00 0.0000000000000000e+00  0.0000000000000000e+00 0.0000000000000000e+00 0.0000000000000000e+00  0.0000000000000000e+00 0.0000000000000000e+00 0.0000000000000000e+00  0.0000000000000000e+00 0.0000000000000000e+00 0.0000000000000000e+00  0.0000000000000000e+00 0.0000000000000000e+00 0.0000000000000000e+00  0.0000000000000000e+00 0.0000000000000000e+00 0.0000000000000000e+00  0.0000000000000000e+00 0.0000000000000000e+00 0.0000000000000000e+00  0.0000000000000000e+00 0.0000000000000000e+00 0.0000000000000000e+00  0.0000000000000000e+00 0.0000000000000000e+00 0.0000000000000000e+00  0.0000000000000000e+00 0.0000000000000000e+00 0.0000000000000000e+00  0.0000000000000000e+00 0.0000000000000000e+00 0.0000000000000000e+00  0.0000000000000000e+00 0.0000000000000000e+00 0.0000000000000000e+00  0.0000000000000000e+00 0.0000000000000000e+00 0.0000000000000000e+00  0.0000000000000000e+00 0.0000000000000000e+00 0.0000000000000000e+00  0.0000000000000000e+00 0.0000000000000000e+00 0.0000000000000000e+00  0.0000000000000000e+00 0.0000000000000000e+00 0.0000000000000000e+00  0.0000000000000000e+00 0.0000000000000000e+00 0.0000000000000000e+00  0.0000000000000000e+00 0.0000000000000000e+00 0.0000000000000000e+00  0.0000000000000000e+00 0.0000000000000000e+00 0.0000000000000000e+00  0.0000000000000000e+00 0.0000000000000000e+00 0.0000000000000000e+00  0.0000000000000000e+00 0.0000000000000000e+00 0.0000000000000000e+00  0.0000000000000000e+00 0.0000000000000000e+00 0.0000000000000000e+00  0.0000000000000000e+00 0.0000000000000000e+00 0.0000000000000000e+00  0.0000000000000000e+00 0.0000000000000000e+00 0.0000000000000000e+00  0.0000000000000000e+00 0.0000000000000000e+00 0.0000000000000000e+00  0.0000000000000000e+00 0.0000000000000000e+00 0.0000000000000000e+00  0.0000000000000000e+00 0.0000000000000000e+00 0.0000000000000000e+00  0.0000000000000000e+00 0.0000000000000000e+00 0.0000000000000000e+00  0.0000000000000000e+00 0.0000000000000000e+00 0.0000000000000000e+00  9.6769433834301588e-01 3.7661607197068177e-03 0.0000000000000000e+00  1.0178412140571884e+00 -1.1721084422092294e-03 0.0000000000000000e+00  1.0371033442414519e+00 4.2724360094486442e-03 0.0000000000000000e+00  9.9608151372444365e-01 -4.1276690903939072e-03 0.0000000000000000e+00  9.7239060817872891e-01 -4.3160968541478941e-03 0.0000000000000000e+00  1.5000002167632422e+00 0.0000000000000000e+00 0.0000000000000000e+00  1.0845472015002686e+00 -8.3401706662372135e-04 0.0000000000000000e+00  1.0246690381285257e+00 1.6829829003783322e-02 0.0000000000000000e+00  1.5000002167632422e+00 0.0000000000000000e+00 0.0000000000000000e+00  0.0000000000000000e+00 0.0000000000000000e+00 0.0000000000000000e+00  1.0306991840669881e+00 1.4312329758497480e-03 0.0000000000000000e+00  0.0000000000000000e+00 0.0000000000000000e+00 0.0000000000000000e+00  0.0000000000000000e+00 0.0000000000000000e+00 0.0000000000000000e+00  1.0402234000284576e+00 2.7788279155481043e-04 0.0000000000000000e+00  0.0000000000000000e+00 0.0000000000000000e+00 0.0000000000000000e+00  0.0000000000000000e+00 0.0000000000000000e+00 0.0000000000000000e+00  0.0000000000000000e+00 0.0000000000000000e+00 0.0000000000000000e+00  1.0254384312559854e+00 -3.5138403496524814e-04 0.0000000000000000e+00  0.0000000000000000e+00 0.0000000000000000e+00 0.0000000000000000e+00  0.0000000000000000e+00 0.0000000000000000e+00 0.0000000000000000e+00  9.9434936221147052e-01 -2.0324168252333478e-03 0.0000000000000000e+00  0.0000000000000000e+00 0.0000000000000000e+00 0.0000000000000000e+00  0.0000000000000000e+00 0.0000000000000000e+00 0.0000000000000000e+00  0.0000000000000000e+00 0.0000000000000000e+00 0.0000000000000000e+00  0.0000000000000000e+00 0.0000000000000000e+00 0.0000000000000000e+00  0.0000000000000000e+00 0.0000000000000000e+00 0.0000000000000000e+00  0.0000000000000000e+00 0.0000000000000000e+00 0.0000000000000000e+00  0.0000000000000000e+00 0.0000000000000000e+00 0.0000000000000000e+00  1.1789903888780371e+00 1.1112799762061208e-01 0.0000000000000000e+00  1.0692864939424775e+00 -2.4179411456218716e-03 0.0000000000000000e+00  1.0444402276294007e+00 -9.4762374433222194e-03 0.0000000000000000e+00  9.6704760753804675e-01 2.1302660551411438e-02 0.0000000000000000e+00  1.0130165706703900e+00 1.8476132649540539e-02 0.0000000000000000e+00  9.9034445016454364e-01 -1.3614505675784982e-02 0.0000000000000000e+00  9.9799336809114136e-01 -1.1411920141766222e-03 0.0000000000000000e+00  1.0379971232117191e+00 -3.3529292645453012e-04 0.0000000000000000e+00  1.0383622399116388e+00 1.0918171274638968e-03 0.0000000000000000e+00  1.0566210242888061e+00 2.6164805076977476e-02 0.0000000000000000e+00  7.0653153073695962e-01 7.6070421157977009e-03 0.0000000000000000e+00  9.2909021237662226e-01 -6.3734919269612328e-03 0.0000000000000000e+00  1.0120715463110899e+00 1.2191665820207469e-02 0.0000000000000000e+00  1.1250001625724317e+00 0.0000000000000000e+00 0.0000000000000000e+00  1.0323527397552510e+00 3.3060068372987978e-03 0.0000000000000000e+00  1.0402883398757716e+00 7.1923722803318097e-03 0.0000000000000000e+00  1.0316565548881718e+00 1.4314847415381579e-01 0.0000000000000000e+00  9.6197239867926232e-01 -7.8716143541025047e-02 0.0000000000000000e+00  9.6156576700936636e-01 4.4446196438189620e-03 0.0000000000000000e+00  1.0591268763754751e+00 -4.4780697694153708e-02 0.0000000000000000e+00  1.0422858374676063e+00 -1.4730857510384106e-02 0.0000000000000000e+00  1.0592520590383185e+00 2.5095381631978008e-02 0.0000000000000000e+00  9.7856245539261921e-01 -3.1179935828104657e-02 0.0000000000000000e+00  1.0431517341122756e+00 3.1585853012082716e-03 0.0000000000000000e+00  1.0378603035811427e+00 -2.1915298363002099e-03 0.0000000000000000e+00  1.0856300883067940e+00 1.7530904221354563e-02 0.0000000000000000e+00  9.7475765142911908e-01 -1.1703529637525349e-02 0.0000000000000000e+00  1.0966855615038165e+00 3.8153035472766996e-03 0.0000000000000000e+00  1.0639835399908721e+00 -3.9536017375664906e-01 0.0000000000000000e+00  0.0000000000000000e+00 0.0000000000000000e+00 0.0000000000000000e+00  1.1311163326298526e+00 -2.3658402758729261e-01 0.0000000000000000e+00  1.1250001625724317e+00 0.0000000000000000e+00 0.0000000000000000e+00  1.0074173148645851e+00 -8.5923138277793683e-03 0.0000000000000000e+00  0.0000000000000000e+00 0.0000000000000000e+00 0.0000000000000000e+00  1.2584933344850155e+00 -1.3541145119560710e-02 0.0000000000000000e+00  1.0111005026104141e+00 1.8889207770108327e-01 0.0000000000000000e+00  1.0277454982207068e+00 3.9879587128937232e-04 0.0000000000000000e+00  1.0500934620875118e+00 1.9892425287392310e-02 0.0000000000000000e+00  0.0000000000000000e+00 0.0000000000000000e+00 0.0000000000000000e+00  1.0346406490401483e+00 7.6626511480236692e-03 0.0000000000000000e+00  1.1250001625724317e+00 0.0000000000000000e+00 0.0000000000000000e+00  9.7786616704071416e-01 2.4328677537256305e-03 0.0000000000000000e+00  1.1250001625724317e+00 0.0000000000000000e+00 0.0000000000000000e+00  0.0000000000000000e+00 0.0000000000000000e+00 0.0000000000000000e+00  1.3312115253481591e+00 2.7919980540914335e-01 0.0000000000000000e+00  1.0548708297643425e+00 -5.1133713874298775e-03 0.0000000000000000e+00  1.0349118152781225e+00 1.7003636054482454e-03 0.0000000000000000e+00  0.0000000000000000e+00 0.0000000000000000e+00 0.0000000000000000e+00  1.0366524331342428e+00 9.3393995309257909e-05 0.0000000000000000e+00  1.0390685628893774e+00 -3.9643366803174805e-04 0.0000000000000000e+00  1.0394836719317646e+00 2.1821868273942399e-03 0.0000000000000000e+00  1.1075041260287746e+00 -4.3735932911582134e-02 0.0000000000000000e+00  9.5273876386859579e-01 2.1375814252624263e-03 0.0000000000000000e+00  1.0354735508423656e+00 6.1603848687025375e-03 0.0000000000000000e+00  1.0299848492191805e+00 -6.9899223455345784e-03 0.0000000000000000e+00  1.0248337934050815e+00 1.6944068403626957e-03 0.0000000000000000e+00  1.0127218369229045e+00 -2.2056521073842909e-03 0.0000000000000000e+00  1.0367602086473273e+00 -1.7889384931177779e-04 0.0000000000000000e+00  1.0317015959418816e+00 -2.0478692118274754e-02 0.0000000000000000e+00  1.0261065152533639e+00 -2.5756775938473768e-03 0.0000000000000000e+00  1.0380414651187595e+00 6.6811487727007433e-03 0.0000000000000000e+00  1.0144886099488781e+00 6.1497932825785757e-03 0.0000000000000000e+00  0.0000000000000000e+00 0.0000000000000000e+00 0.0000000000000000e+00  1.0404850086825561e+00 -7.6351868793719465e-04 0.0000000000000000e+00  0.0000000000000000e+00 0.0000000000000000e+00 0.0000000000000000e+00  0.0000000000000000e+00 0.0000000000000000e+00 0.0000000000000000e+00  0.0000000000000000e+00 0.0000000000000000e+00 0.0000000000000000e+00  0.0000000000000000e+00 0.0000000000000000e+00 0.0000000000000000e+00  0.0000000000000000e+00 0.0000000000000000e+00 0.0000000000000000e+00  0.0000000000000000e+00 0.0000000000000000e+00 0.0000000000000000e+00  0.0000000000000000e+00 0.0000000000000000e+00 0.0000000000000000e+00  0.0000000000000000e+00 0.0000000000000000e+00 0.0000000000000000e+00  9.0554924482716259e-01 3.2563687134205939e-02 0.0000000000000000e+00  0.0000000000000000e+00 0.0000000000000000e+00 0.0000000000000000e+00  0.0000000000000000e+00 0.0000000000000000e+00 0.0000000000000000e+00  0.0000000000000000e+00 0.0000000000000000e+00 0.0000000000000000e+00  0.0000000000000000e+00 0.0000000000000000e+00 0.0000000000000000e+00  0.0000000000000000e+00 0.0000000000000000e+00 0.0000000000000000e+00  0.0000000000000000e+00 0.0000000000000000e+00 0.0000000000000000e+00  0.0000000000000000e+00 0.0000000000000000e+00 0.0000000000000000e+00  0.0000000000000000e+00 0.0000000000000000e+00 0.0000000000000000e+00  0.0000000000000000e+00 0.0000000000000000e+00 0.0000000000000000e+00  0.0000000000000000e+00 0.0000000000000000e+00 0.0000000000000000e+00  0.0000000000000000e+00 0.0000000000000000e+00 0.0000000000000000e+00  0.0000000000000000e+00 0.0000000000000000e+00 0.0000000000000000e+00  0.0000000000000000e+00 0.0000000000000000e+00 0.0000000000000000e+00  0.0000000000000000e+00 0.0000000000000000e+00 0.0000000000000000e+00  0.0000000000000000e+00 0.0000000000000000e+00 0.0000000000000000e+00  0.0000000000000000e+00 0.0000000000000000e+00 0.0000000000000000e+00  0.0000000000000000e+00 0.0000000000000000e+00 0.0000000000000000e+00  0.0000000000000000e+00 0.0000000000000000e+00 0.0000000000000000e+00  1.0404354117486554e+00 -6.9436128496554686e-02 0.0000000000000000e+00  9.9838038342187785e-01 1.1220246822101912e-02 0.0000000000000000e+00  1.0386396088513510e+00 3.0827832169768058e-04 0.0000000000000000e+00  1.0631605632798773e+00 -8.9669926470932679e-03 0.0000000000000000e+00  9.3812118716202164e-01 1.9592387829576279e-02 0.0000000000000000e+00  1.0400802182712852e+00 -1.5464599131075299e-04 0.0000000000000000e+00  8.9632966622344268e-01 -2.8890671186310407e-03 0.0000000000000000e+00  9.2443473094800466e-01 2.3875828682337605e-01 0.0000000000000000e+00  1.0675794265296994e+00 -1.7551145304326771e-01 0.0000000000000000e+00  1.3685634090553271e+00 1.2942572041702644e-02 0.0000000000000000e+00  9.9254653157260064e-01 -5.3677427444114500e-03 0.0000000000000000e+00  9.5144198551564674e-01 3.7698729768014154e-03 0.0000000000000000e+00  1.0944340112484063e+00 4.8247815521619683e-03 0.0000000000000000e+00  1.1977091368286179e+00 -3.2509342456879786e-01 0.0000000000000000e+00  1.1387641942502507e+00 5.8503882610985686e-02 0.0000000000000000e+00  1.4192937998154056e+00 -1.9818275891828285e-01 0.0000000000000000e+00  1.4147646252244725e+00 -1.6383733053516911e-02 0.0000000000000000e+00  1.6586817381968273e+00 9.8974325996970924e-02 0.0000000000000000e+00  1.3537740037945056e+00 -1.0886886010904127e-02 0.0000000000000000e+00  1.2953102807173535e+00 1.3881760936598009e-02 0.0000000000000000e+00  8.8566251544300112e-01 3.3576439182440909e-02 0.0000000000000000e+00  1.0052548135234913e+00 -2.5459294944256729e-03 0.0000000000000000e+00  1.0365378384078807e+00 -1.7288448518597819e-02 0.0000000000000000e+00  7.5989988087475635e-01 2.9659693200410847e-01 0.0000000000000000e+00  1.0202374627482398e+00 3.6374145212388699e-04 0.0000000000000000e+00  1.1656562006021602e+00 8.1491987803978927e-02 0.0000000000000000e+00  1.0317646890007282e+00 4.8092177500794545e-02 0.0000000000000000e+00  8.9132229089952064e-01 1.5067615596615234e-02 0.0000000000000000e+00  8.5135924612736436e-01 -5.9511737511949948e-03 0.0000000000000000e+00  9.9741557701987549e-01 -3.5726293491490764e-02 0.0000000000000000e+00  6.9078927580184391e-01 5.8600410129031229e-02 0.0000000000000000e+00  1.0163398173819227e+00 4.8393432984852368e-03 0.0000000000000000e+00  1.0762351048091954e+00 3.9780705106616424e-02 0.0000000000000000e+00  9.5492091240632737e-01 4.2989592258874526e-02 0.0000000000000000e+00  8.9430490215442571e-01 -2.9406584105761666e-02 0.0000000000000000e+00  1.0089122817136627e+00 -2.1326213214430980e-02 0.0000000000000000e+00  1.2420571533470706e+00 3.0415409699508467e-01 0.0000000000000000e+00  1.0332876431812918e+00 -4.8099137580500861e-03 0.0000000000000000e+00  1.0011127778485940e+00 5.3626401788108256e-03 0.0000000000000000e+00  1.0374407853505192e+00 1.8640670071041531e-03 0.0000000000000000e+00  1.0058773476495624e+00 1.0161737484028170e-04 0.0000000000000000e+00  9.9919295078243653e-01 1.3209860500253344e-02 0.0000000000000000e+00  1.0376205695874701e+00 -9.6252332476951116e-04 0.0000000000000000e+00  8.4007493445930104e-01 4.5233804899997426e-02 0.0000000000000000e+00  1.0017407417405941e+00 -3.3569494648818282e-02 0.0000000000000000e+00  9.5105663255382922e-01 5.1539869449897524e-03 0.0000000000000000e+00  1.0293468799137095e+00 -1.8761019714520640e-03 0.0000000000000000e+00  1.0351467014876836e+00 -2.2797862825778095e-03 0.0000000000000000e+00  8.5784772012773880e-01 2.3830724710998764e-02 0.0000000000000000e+00  6.5625009483391850e-01 0.0000000000000000e+00 0.0000000000000000e+00  9.4579338430241033e-01 -6.4374867818771844e-02 0.0000000000000000e+00  9.8382013313417027e-01 -3.4786727101206151e-02 0.0000000000000000e+00  2.0270672500620443e-01 -6.7357858012345742e-02 0.0000000000000000e+00  9.8866301231921061e-01 8.6539061749298096e-03 0.0000000000000000e+00  8.5694373054601636e-01 3.6575177195609536e-02 0.0000000000000000e+00  1.0274898042080376e+00 6.4549055460415014e-03 0.0000000000000000e+00  9.8212335910761572e-01 -1.0769110411737880e-03 0.0000000000000000e+00  1.0401286040655680e+00 -4.7901100166772301e-03 0.0000000000000000e+00  1.0647288620211968e+00 1.0570149723540971e-02 0.0000000000000000e+00  1.0344116666025942e+00 4.2697092301623276e-03 0.0000000000000000e+00  1.0349752268094172e+00 -2.2192669090347031e-03 0.0000000000000000e+00  1.0292284050172988e+00 -4.8085340952357204e-02 0.0000000000000000e+00  1.0367949708145108e+00 1.3813850169486311e-02 0.0000000000000000e+00  1.0375860344778776e+00 6.1539875524148028e-03 0.0000000000000000e+00  1.0414738648067767e+00 -1.6078282458524746e-04 0.0000000000000000e+00  1.0171378280267676e+00 1.6382290348852778e-03 0.0000000000000000e+00  1.0293051153474380e+00 5.9801022029492669e-03 0.0000000000000000e+00  8.5069592980805653e-01 -2.6365304052466773e-02 0.0000000000000000e+00  9.9230438835554502e-01 -2.0378657200053551e-03 0.0000000000000000e+00  1.0964047489723088e+00 -7.7032560611562884e-02 0.0000000000000000e+00  6.7910837558521397e-01 -2.6856744704416979e-01 0.0000000000000000e+00  9.8570218467001647e-01 1.0755302259234536e-02 0.0000000000000000e+00  1.3987954566559007e+00 -8.6594244554163396e-02 0.0000000000000000e+00  1.0311282742793586e+00 1.2260393972200833e-02 0.0000000000000000e+00  9.9786332024252722e-01 -3.1066615150325359e-03 0.0000000000000000e+00  1.0293137935928665e+00 1.3735207158303136e-02 0.0000000000000000e+00  9.9377999468108758e-01 -4.6679677916405565e-02 0.0000000000000000e+00  1.0089542076950535e+00 1.2307020663142605e-03 0.0000000000000000e+00  1.0292112250371226e+00 -5.6448114103193978e-03 0.0000000000000000e+00  1.0236626228562393e+00 -3.8392059845653876e-03 0.0000000000000000e+00  9.6405752321742821e-01 -4.2592887384992027e-05 0.0000000000000000e+00  1.0189444497334044e+00 3.2021794108655407e-03 0.0000000000000000e+00  1.0084947278926324e+00 -5.3179580962245399e-02 0.0000000000000000e+00  9.8686882599712689e-01 -8.1222864265241210e-03 0.0000000000000000e+00  1.0360175109273317e+00 -6.2718097468352754e-04 0.0000000000000000e+00  1.0395133422293319e+00 4.6977975737366147e-03 0.0000000000000000e+00  9.7402332370095801e-01 -5.4953452194802410e-02 0.0000000000000000e+00  9.5445294731833985e-01 -4.3301470579520898e-02 0.0000000000000000e+00  8.9947329962698652e-01 8.6203240880465427e-03 0.0000000000000000e+00  1.0410128631527678e+00 1.1302520189436685e-03 0.0000000000000000e+00  1.0389530462194103e+00 -1.7662053132599862e-03 0.0000000000000000e+00  1.0368676641408114e+00 5.8639880107686278e-03 0.0000000000000000e+00  9.9016591767637319e-01 -1.8048043588363701e-02 0.0000000000000000e+00  9.9213971939970136e-01 -6.9950754536706409e-03 0.0000000000000000e+00  1.0279706768512311e+00 1.0969200677678568e-02 0.0000000000000000e+00  1.0257679453719706e+00 1.7568405108069333e-02 0.0000000000000000e+00  9.6127373435190044e-01 -4.8505083939353747e-03 0.0000000000000000e+00  9.4749996339905007e-01 1.5664967162718431e-02 0.0000000000000000e+00  9.6405744220620448e-01 5.2481952406792992e-03 0.0000000000000000e+00  1.0347570701602593e+00 1.0021214858216207e-02 0.0000000000000000e+00  8.7265631942318300e-01 -1.1930426501317745e-02 0.0000000000000000e+00  9.5178867682958812e-01 -3.1116941480984900e-01 0.0000000000000000e+00  9.5726494657014893e-01 -2.3525957900327573e-02 0.0000000000000000e+00  1.0217580630252265e+00 -1.7150067430181947e-02 0.0000000000000000e+00  1.0324827223898978e+00 9.7940851026628636e-03 0.000000000000000