<?xml version="1.0"?>
<VTKFile type="UnstructuredGrid"  version="0.1"  >
<UnstructuredGrid>
<Piece  NumberOfPoints="4269" NumberOfCells="8234">
<Points>
<DataArray  type="Float64"  NumberOfComponents="3"  format="ascii">0 1 0  0 0 0  7.5 0 0  7.5 1 0  1.197537668119028 0.5812868930080463 0  1.2 0.55 0  1.197537668119028 0.5187131069919538 0  1.190211303259031 0.4881966011250105 0  1.178201304837674 0.4592019000520907 0  1.161803398874989 0.4324429495415054 0  1.141421356237309 0.4085786437626905 0  1.117557050458495 0.3881966011250105 0  1.090798099947909 0.3717986951623264 0  1.06180339887499 0.3597886967409693 0  1.031286893008046 0.3524623318809725 0  1 0.35 0  0.9687131069919538 0.3524623318809725 0  0.9381966011250105 0.3597886967409694 0  0.9092019000520906 0.3717986951623264 0  0.8824429495415054 0.3881966011250105 0  0.8585786437626904 0.4085786437626905 0  0.8381966011250105 0.4324429495415054 0  0.8217986951623264 0.4592019000520907 0  0.8097886967409692 0.4881966011250107 0  0.8024623318809725 0.5187131069919539 0  0.8 0.55 0  0.8024623318809725 0.5812868930080463 0  0.8097886967409693 0.6118033988749896 0  0.8217986951623264 0.6407980999479095 0  0.8381966011250105 0.6675570504584947 0  0.8585786437626906 0.6914213562373096 0  0.8824429495415054 0.7118033988749896 0  0.9092019000520907 0.7282013048376736 0  0.9381966011250106 0.7402113032590307 0  0.9687131069919539 0.7475376681190276 0  1 0.75 0  1.031286893008046 0.7475376681190276 0  1.06180339887499 0.7402113032590307 0  1.090798099947909 0.7282013048376736 0  1.117557050458495 0.7118033988749896 0  1.141421356237309 0.6914213562373095 0  1.161803398874989 0.6675570504584947 0  1.178201304837674 0.6407980999479094 0  1.190211303259031 0.6118033988749896 0  3.75 0 0  3.75 1 0  1.875 0 0  1.875 1 0  0.9375 0 0  0.9375 1 0  1.40625 1 0  5.625 1 0  5.625 0 0  2.8125 1 0  2.8125 0 0  4.6875 0 0  4.6875 1 0  6.5625 0 0  6.5625 1 0  5.15625 0.5 0  4.21875 0.5 0  2.34375 0.5 0  3.28125 0.5 0  6.09375 0.5 0  7.5 0.5 0  6.897916666666666 0.5 0  1.842708333333333 0.5 0  0 0.5 0  0.46875 0 0  5.625 0.5302734375 0  7.03125 0 0  6.09375 1 0  2.8125 0.4697265625 0  3.28125 0 0  2.34375 1 0  2.34375 0 0  3.75 0.4697265625 0  4.21875 0 0  4.21875 1 0  4.6875 0.5302734375 0  3.28125 1 0  5.15625 0 0  6.09375 0 0  5.15625 1 0  0.46875 1 0  1.40625 0 0  7.03125 1 0  0.3954638734376499 0.5975780249976004 0  6.495833333333334 0.4072265624999998 0  5.859375 0.25 0  4.905729166666666 0.26513671875 0  4.453125 0.25 0  3.531770833333333 0.73486328125 0  3.968229166666667 0.73486328125 0  2.594270833333333 0.73486328125 0  3.030729166666667 0.73486328125 0  6.328125 0.75 0  7.198958333333334 0.3125000000000002 0  7.198958333333334 0.6874999999999998 0  5.390625 0.25 0  0 0.25 0  2.109375 0.75 0  2.109375 0.25 0  1.51921323205749 0.3418883887525936 0  1.522346610178253 0.6811769608297746 0  5.375456746419271 0.75 0  4.921875 0.76513671875 0  4.437956746419271 0.75 0  3.984375 0.23486328125 0  3.500456746419271 0.25 0  2.578125 0.23486328125 0  3.046875 0.23486328125 0  5.874543253580729 0.75 0  6.642123189445656 0.6909095493086836 0  6.746354166666666 0.2391688368055553 0  0.3197109619185111 0.2850049285972083 0  6.328125 0 0  0.6313375889370429 0.2351325552547357 0  0 0.75 0  6.252283381534729 0.2693808819694041 0  0.234375 1 0  6.948437500000001 0.7543055555555555 0  0.5934018769555939 0.7694151657947577 0  1.858854166666667 0.75 0  1.858854166666667 0.25 0  1.640625 0 0  2.093229166666667 0.5 0  7.5 0.25 0  3.282227579752604 0.75 0  7.5 0.75 0  1.171875 0 0  1.303539853147731 0.2235426933121065 0  5.148177083333333 0.2575683593749998 0  2.351822916666667 0.742431640625 0  1.640625 1 0  4.202380413457425 0.7645435094236485 0  3.047822985053062 0.4701848030090332 0  2.577177014946938 0.4701848030090332 0  4.672792740482199 0.76513671875 0  4.922822985053062 0.5298151969909668 0  5.390593497949761 0.5156244924311331 0  5.610292740482199 0.76513671875 0  3.516602579752604 0.5 0  4.45496853898097 0.4865915990446593 0  5.85753146101903 0.4865915990446593 0  3.749511210123698 0.23486328125 0  3.983397420247396 0.4999999999999999 0  2.343497975411212 0.2346270081980111 0  4.219002024588788 0.2346270081980111 0  0.703125 0 0  2.8125 0.2343755075688669 0  3.046875 0 0  2.578125 0 0  3.515625 0 0  3.984375 0 0  4.453125 1 0  5.390625 1 0  2.109375 0 0  2.109375 1 0  5.625 0.2921402030705575 0  5.390625 0 0  7.265625 0 0  6.796875 0 0  6.328125 1 0  3.046875 1 0  2.578125 1 0  3.984375 1 0  3.515625 1 0  4.453125 0 0  4.921875 0 0  5.859375 0 0  0.703125 1 0  1.171875 1 0  7.265625 1 0  4.921875 1 0  5.859375 1 0  0.234375 0 0  6.796875 1 0  6.980310975276531 0.2285890127127066 0  5.149170481934885 0.772689292163473 0  3.274170481934884 0.2273107078365268 0  6.101334126790364 0.7722468376159667 0  4.678005340872584 0.3000799877067239 0  2.8125 0.6921051326382495 0  3.75 0.6921051326382495 0  0.3515624999999999 0.8134571721668546 0  0.4990405774417521 0.4070099317153735 0  0.1789273931360182 0.625 0  6.31239060814315 0.5298877111157968 0  6.456979773992304 0.1917956348713352 0  6.699870808919271 0.4406293402777773 0  1.337539480965883 0.7944303676599538 0  6.058675797563041 0.2019812164653516 0  0.8203125 0.1643029084422534 0  0.1480856513011711 0.375 0  1.090769294689562 0.1719186776982972 0  7.291088163206459 0.5 0  7.094502414936563 0.5197902199074071 0  0.6046212059042245 0.5730066483871106 0  1.707231580809486 0.6342709161352207 0  1.685961352504593 0.8193269193390785 0  1.374721602852827 0.4600373025865813 0  6.486415510043844 0.5916440776477192 0  1.5234375 0.1508863828685116 0  1.707925830421689 0.3657739208189008 0  0.1674513225045584 0.8278776664019765 0  7.138268756771176 0.1438183366439137 0  7.1484375 0.8616388888888887 0  7.328562530764119 0.819498462930605 0  4.101073710123698 0.3678637200736647 0  1.693878467219965 0.1911955120941053 0  1.577566745468488 0.5110082404081502 0  6.6796875 0.8653871806883484 0  6.498039504430512 0.825568433346395 0  0.7562556668576472 0.8333197949571929 0  4.101045914668806 0.6255195807449272 0  5.030745188395182 0.382829047309028 0  2.476364945868651 0.6095868094762166 0  2.729359843907322 0.8460525663191247 0  2.9296875 0.8740763101564099 0  3.163518307559356 0.6254622797994247 0  3.666859843907322 0.8460525663191247 0  3.8671875 0.8740763101564099 0  4.8046875 0.12592368984359 0  3.14936031382311 0.8606990583876851 0  2.4609375 0.8747622921397776 0  5.023140791101972 0.1392266772452574 0  0 0.125 0  0.1759922923594607 0.1727589856739889 0  4.5703125 0.125 0  7.327755777818006 0.1766156770456191 0  5.5078125 0.125 0  5.719712725029036 0.1460701015352787 0  4.327848962028002 0.3674169956512513 0  5.982681121544351 0.3692637923021713 0  3.398926289876302 0.6245417594909667 0  5.281756792511996 0.3827993367299961 0  2.226822645963271 0.6252438868405666 0  2.234390064317166 0.8676616584526566 0  5.2734375 0.125 0  1.96796875 0.382568359375 0  2.234651037971999 0.3674169956512511 0  1.984114583333333 0.132568359375 0  1.9921875 0.875 0  1.984114583333333 0.632568359375 0  5.748733794462357 0.8678269127183313 0  3.3984375 0.875456329184688 0  1.512925924995415 0.8582958012121853 0  1.359299372802969 0.6275861864990343 0  4.810521420483513 0.4041767793635395 0  0.2996213306116602 0.455339710363317 0  5.999933717403708 0.6388425470751088 0  5.250033449003657 0.6388713364551682 0  3.631676045992918 0.3525406652400928 0  4.3359375 0.8816499670325881 0  4.343577437052484 0.6116511299909198 0  3.375033449003656 0.3611286635448316 0  5.763152151652243 0.6249404690537395 0  4.549347848347757 0.6249404690537396 0  5.5004588702411 0.6403667365776566 0  5.976118394847484 0.8816230218343086 0  5.054722486865804 0.6338007028640954 0  3.164542163493752 0.3520519332736524 0  2.445407482032355 0.3672168403687257 0  4.8046875 0.882568359375 0  4.1015625 0.117431640625 0  2.4609375 0.117431640625 0  2.695556894938151 0.3520510350344335 0  2.929443105061849 0.3520510350344335 0  3.881979231817319 0.3670559016511187 0  3.8671875 0.117431640625 0  4.805389247695744 0.6470047893641744 0  3.399370721942191 0.1184066543556767 0  5.274370721942192 0.881593345644323 0  3.618253274934649 0.1316869186284249 0  2.6953125 0.1171877537844335 0  2.9296875 0.1171877537844335 0  2.21873344389451 0.125 0  4.3359375 0.1171877625080073 0  0.6659898565672709 0.3986593551313873 0  7.363359022954956 0.3481046411219251 0  7.363359022954956 0.6518953588780749 0  5.487719392831826 0.3828237631077121 0  2.695054578344725 0.5809158475691247 0  2.944553877887707 0.5964065668438148 0  0.3515625 0.1201898858097106 0  5.5078125 1 0  4.5703125 1 0  5.031746201297604 0.882568359375 0  3.1640625 0 0  6.2109375 1 0  6.186845385763124 0.6336356480571081 0  4.1015625 1 0  6.810399074069772 0.6495574751396682 0  0.4740615253480797 0.2509287743856873 0  7.052064303830151 0.3684417917792242 0  6.195177069665382 0.1216488332168849 0  5.72300154718324 0.4112068202852788 0  3.879157465495092 0.6111892850691246 0  3.645760045247695 0.5809158475691247 0  6.868257400485771 0.3427840810237202 0  6.612030892260864 0.1521752713064389 0  6.615666885941117 0.3151079644097221 0  4.04296875 0.8633718902669071 0  1.183031453639096 0.8486801864185936 0  6.9140625 0 0  6.859079526500421 0.1398292786950638 0  6.808232443325651 0.7957411753922057 0  6.9140625 1 0  4.544955211100143 0.3675874343205077 0  1.0546875 1 0  6.122060236165557 0.3316791557072867 0  0.5859375 0 0  5.9765625 0 0  5.44921875 0.870984788733638 0  4.51171875 0.870984788733638 0  0.7608354256382215 0.2931261274224557 0  6.386875332239937 0.3156583003094978 0  6.985654756850997 0.6147408423643147 0  6.223797257919172 0.8535621912121121 0  5.936822413218736 0.1338376546337823 0  6.23933008800134 0.4095573603773768 0  0.5414022462152697 0.1305482677949959 0  6.331360438104348 0.1370086318183389 0  0.956404929269873 0.1374266563647954 0  1.2890625 1 0  0.691305981127761 0.6764829884281737 0  3.531251607241209 0.8678916320952239 0  2.59787442813022 
[...]
<PointData  Vectors="f_71627"> 
<DataArray  type="Float64"  Name="f_71627"  NumberOfComponents="3" format="ascii">0.0000000000000000e+00 0.0000000000000000e+00 0.0000000000000000e+00  0.0000000000000000e+00 0.0000000000000000e+00 0.0000000000000000e+00  0.0000000000000000e+00 0.0000000000000000e+00 0.0000000000000000e+00  0.0000000000000000e+00 0.0000000000000000e+00 0.0000000000000000e+00  0.0000000000000000e+00 0.0000000000000000e+00 0.0000000000000000e+00  0.0000000000000000e+00 0.0000000000000000e+00 0.0000000000000000e+00  0.0000000000000000e+00 0.0000000000000000e+00 0.0000000000000000e+00  0.0000000000000000e+00 0.0000000000000000e+00 0.0000000000000000e+00  0.0000000000000000e+00 0.0000000000000000e+00 0.0000000000000000e+00  0.0000000000000000e+00 0.0000000000000000e+00 0.0000000000000000e+00  0.0000000000000000e+00 0.0000000000000000e+00 0.0000000000000000e+00  0.0000000000000000e+00 0.0000000000000000e+00 0.0000000000000000e+00  0.0000000000000000e+00 0.0000000000000000e+00 0.0000000000000000e+00  0.0000000000000000e+00 0.0000000000000000e+00 0.0000000000000000e+00  0.0000000000000000e+00 0.0000000000000000e+00 0.0000000000000000e+00  0.0000000000000000e+00 0.0000000000000000e+00 0.0000000000000000e+00  0.0000000000000000e+00 0.0000000000000000e+00 0.0000000000000000e+00  0.0000000000000000e+00 0.0000000000000000e+00 0.0000000000000000e+00  0.0000000000000000e+00 0.0000000000000000e+00 0.0000000000000000e+00  0.0000000000000000e+00 0.0000000000000000e+00 0.0000000000000000e+00  0.0000000000000000e+00 0.0000000000000000e+00 0.0000000000000000e+00  0.0000000000000000e+00 0.0000000000000000e+00 0.0000000000000000e+00  0.0000000000000000e+00 0.0000000000000000e+00 0.0000000000000000e+00  0.0000000000000000e+00 0.0000000000000000e+00 0.0000000000000000e+00  0.0000000000000000e+00 0.0000000000000000e+00 0.0000000000000000e+00  0.0000000000000000e+00 0.0000000000000000e+00 0.0000000000000000e+00  0.0000000000000000e+00 0.0000000000000000e+00 0.0000000000000000e+00  0.0000000000000000e+00 0.0000000000000000e+00 0.0000000000000000e+00  0.0000000000000000e+00 0.0000000000000000e+00 0.0000000000000000e+00  0.0000000000000000e+00 0.0000000000000000e+00 0.0000000000000000e+00  0.0000000000000000e+00 0.0000000000000000e+00 0.0000000000000000e+00  0.0000000000000000e+00 0.0000000000000000e+00 0.0000000000000000e+00  0.0000000000000000e+00 0.0000000000000000e+00 0.0000000000000000e+00  0.0000000000000000e+00 0.0000000000000000e+00 0.0000000000000000e+00  0.0000000000000000e+00 0.0000000000000000e+00 0.0000000000000000e+00  0.0000000000000000e+00 0.0000000000000000e+00 0.0000000000000000e+00  0.0000000000000000e+00 0.0000000000000000e+00 0.0000000000000000e+00  0.0000000000000000e+00 0.0000000000000000e+00 0.0000000000000000e+00  0.0000000000000000e+00 0.0000000000000000e+00 0.0000000000000000e+00  0.0000000000000000e+00 0.0000000000000000e+00 0.0000000000000000e+00  0.0000000000000000e+00 0.0000000000000000e+00 0.0000000000000000e+00  0.0000000000000000e+00 0.0000000000000000e+00 0.0000000000000000e+00  0.0000000000000000e+00 0.0000000000000000e+00 0.0000000000000000e+00  0.0000000000000000e+00 0.0000000000000000e+00 0.0000000000000000e+00  0.0000000000000000e+00 0.0000000000000000e+00 0.0000000000000000e+00  0.0000000000000000e+00 0.0000000000000000e+00 0.0000000000000000e+00  0.0000000000000000e+00 0.0000000000000000e+00 0.0000000000000000e+00  0.0000000000000000e+00 0.0000000000000000e+00 0.0000000000000000e+00  0.0000000000000000e+00 0.0000000000000000e+00 0.0000000000000000e+00  0.0000000000000000e+00 0.0000000000000000e+00 0.0000000000000000e+00  0.0000000000000000e+00 0.0000000000000000e+00 0.0000000000000000e+00  0.0000000000000000e+00 0.0000000000000000e+00 0.0000000000000000e+00  0.0000000000000000e+00 0.0000000000000000e+00 0.0000000000000000e+00  0.0000000000000000e+00 0.0000000000000000e+00 0.0000000000000000e+00  0.0000000000000000e+00 0.0000000000000000e+00 0.0000000000000000e+00  0.0000000000000000e+00 0.0000000000000000e+00 0.0000000000000000e+00  0.0000000000000000e+00 0.0000000000000000e+00 0.0000000000000000e+00  0.0000000000000000e+00 0.0000000000000000e+00 0.0000000000000000e+00  0.0000000000000000e+00 0.0000000000000000e+00 0.0000000000000000e+00  1.8960097044390336e+00 -8.7694691104500000e-01 0.0000000000000000e+00  1.6667563393992797e+00 2.8828725266579330e-01 0.0000000000000000e+00  1.6206316989532252e+00 1.2660583562807810e+00 0.0000000000000000e+00  1.8171803065604351e+00 8.2342045841714240e-01 0.0000000000000000e+00  1.7027967304580209e+00 -7.4153348375782313e-01 0.0000000000000000e+00  1.5000002318968400e+00 0.0000000000000000e+00 0.0000000000000000e+00  1.4410363814189842e+00 2.5643924084943875e-01 0.0000000000000000e+00  1.4554179030871033e+00 -1.3101524749793867e+00 0.0000000000000000e+00  1.5000002318968400e+00 0.0000000000000000e+00 0.0000000000000000e+00  0.0000000000000000e+00 0.0000000000000000e+00 0.0000000000000000e+00  1.5788507232580880e+00 1.0750503661479340e+00 0.0000000000000000e+00  0.0000000000000000e+00 0.0000000000000000e+00 0.0000000000000000e+00  0.0000000000000000e+00 0.0000000000000000e+00 0.0000000000000000e+00  1.7978098018759481e+00 -9.2258119519648318e-01 0.0000000000000000e+00  0.0000000000000000e+00 0.0000000000000000e+00 0.0000000000000000e+00  0.0000000000000000e+00 0.0000000000000000e+00 0.0000000000000000e+00  0.0000000000000000e+00 0.0000000000000000e+00 0.0000000000000000e+00  1.5690949784475199e+00 -4.9585126008626584e-01 0.0000000000000000e+00  0.0000000000000000e+00 0.0000000000000000e+00 0.0000000000000000e+00  0.0000000000000000e+00 0.0000000000000000e+00 0.0000000000000000e+00  1.5864333907587902e+00 3.6101828024578370e-01 0.0000000000000000e+00  0.0000000000000000e+00 0.0000000000000000e+00 0.0000000000000000e+00  0.0000000000000000e+00 0.0000000000000000e+00 0.0000000000000000e+00  0.0000000000000000e+00 0.0000000000000000e+00 0.0000000000000000e+00  0.0000000000000000e+00 0.0000000000000000e+00 0.0000000000000000e+00  0.0000000000000000e+00 0.0000000000000000e+00 0.0000000000000000e+00  0.0000000000000000e+00 0.0000000000000000e+00 0.0000000000000000e+00  0.0000000000000000e+00 0.0000000000000000e+00 0.0000000000000000e+00  1.3615490259413210e+00 -1.9326877621138768e-02 0.0000000000000000e+00  1.9858596009014808e+00 3.3965610925142575e-01 0.0000000000000000e+00  9.7749984280476032e-01 -2.4183239789333447e-01 0.0000000000000000e+00  1.2937167832628285e+00 -3.7976746421283869e-01 0.0000000000000000e+00  1.5569614774376321e+00 5.1787436996537473e-01 0.0000000000000000e+00  7.1667901873398765e-01 5.7732949908780595e-01 0.0000000000000000e+00  4.2572259851810090e-01 -1.0351251105620471e+00 0.0000000000000000e+00  1.2925646090308593e+00 -2.7867079392083272e-01 0.0000000000000000e+00  1.4521120653334343e-01 -5.5677970606283422e-01 0.0000000000000000e+00  4.9145750819213013e-01 -1.9073954951861660e-01 0.0000000000000000e+00  1.1529307960125272e+00 -6.3482005761222160e-01 0.0000000000000000e+00  8.4896488004522275e-01 -5.4971543455951366e-01 0.0000000000000000e+00  1.8397612560916359e+00 2.7194483788322421e-01 0.0000000000000000e+00  1.1250001739226299e+00 0.0000000000000000e+00 0.0000000000000000e+00  -2.8787964874058364e-01 3.0370139219170605e-01 0.0000000000000000e+00  2.3537328097061132e+00 6.3855488744341560e-01 0.0000000000000000e+00  8.5940268436233913e-01 7.1509711712289281e-01 0.0000000000000000e+00  1.7608494358201283e+00 -6.1217779204023859e-01 0.0000000000000000e+00  3.6391279415847949e-01 4.8112194553603382e-01 0.0000000000000000e+00  7.3024535884940656e-01 -5.3709669403694049e-01 0.0000000000000000e+00  4.0274304717292198e-01 6.1046746645241312e-01 0.0000000000000000e+00  1.5581308855704616e+00 -9.7920841015068827e-01 0.0000000000000000e+00  1.0614479344301415e+00 5.2195152707695025e-01 0.0000000000000000e+00  1.3272485657941855e+00 2.2914782108598444e-01 0.0000000000000000e+00  1.8307278136454559e+00 -6.1280337924490447e-01 0.0000000000000000e+00  1.3089655686604920e+00 -2.9088932149473440e-01 0.0000000000000000e+00  9.8207737140526741e-01 7.7202763783775885e-01 0.0000000000000000e+00  9.3604045921727652e-01 3.5078496375603269e-01 0.0000000000000000e+00  1.2336483771916544e+00 -8.0933208644735855e-02 0.0000000000000000e+00  0.0000000000000000e+00 0.0000000000000000e+00 0.0000000000000000e+00  1.2470773409016529e+00 -2.9208738573837334e-01 0.0000000000000000e+00  1.1250001739226299e+00 0.0000000000000000e+00 0.0000000000000000e+00  1.5266823684572990e+00 -4.2668223955821938e-01 0.0000000000000000e+00  0.0000000000000000e+00 0.0000000000000000e+00 0.0000000000000000e+00  1.1782878823141729e+00 2.4066555791627808e-02 0.0000000000000000e+00  1.0437331220645201e+00 2.1816134995280409e-01 0.0000000000000000e+00  6.3642154727213052e-01 -9.7059873472379737e-02 0.0000000000000000e+00  1.2400447607991185e+00 -4.6927146847351542e-01 0.0000000000000000e+00  0.0000000000000000e+00 0.0000000000000000e+00 0.0000000000000000e+00  1.5892246599906210e+00 -1.4303804613053683e-01 0.0000000000000000e+00  1.1250001739226299e+00 0.0000000000000000e+00 0.0000000000000000e+00  -1.4029682051625075e-01 7.1806942555315845e-01 0.0000000000000000e+00  1.1250001739226299e+00 0.0000000000000000e+00 0.0000000000000000e+00  0.0000000000000000e+00 0.0000000000000000e+00 0.0000000000000000e+00  1.8949918057171602e+00 3.8997690524064837e-01 0.0000000000000000e+00  1.6524643540106305e+00 -7.0574521900285458e-01 0.0000000000000000e+00  7.6950195342441485e-01 5.6714226425747560e-01 0.0000000000000000e+00  0.0000000000000000e+00 0.0000000000000000e+00 0.0000000000000000e+00  1.7241189676234042e-01 2.5059058678258500e-01 0.0000000000000000e+00  1.9993479187563379e+00 -9.0937978414313392e-01 0.0000000000000000e+00  1.5127419785086100e+00 -7.7024366116278026e-02 0.0000000000000000e+00  7.8682301211881445e-01 2.5218793079002766e-01 0.0000000000000000e+00  1.5999465082381017e+00 -6.8312847013435496e-01 0.0000000000000000e+00  1.7347241104374818e+00 4.2413280631560785e-01 0.0000000000000000e+00  5.7698161986671015e-01 5.1190675637158845e-01 0.0000000000000000e+00  1.6773214102459992e+00 1.2732199896741867e+00 0.0000000000000000e+00  1.6215771151247116e+00 8.7829002398666578e-01 0.0000000000000000e+00  1.5820684220590129e+00 -1.8690551269436984e-01 0.0000000000000000e+00  9.7224581340279070e-01 -2.0463305710043173e-01 0.0000000000000000e+00  1.5560981233627798e+00 -1.3965222691425079e+00 0.0000000000000000e+00  1.0382617998925279e+00 3.4157021387602604e-01 0.0000000000000000e+00  2.0235727899767575e+00 1.5689605854862931e-01 0.0000000000000000e+00  0.0000000000000000e+00 0.0000000000000000e+00 0.0000000000000000e+00  1.6927342285178903e+00 -6.4912432579256119e-01 0.0000000000000000e+00  0.0000000000000000e+00 0.0000000000000000e+00 0.0000000000000000e+00  0.0000000000000000e+00 0.0000000000000000e+00 0.0000000000000000e+00  0.0000000000000000e+00 0.0000000000000000e+00 0.0000000000000000e+00  0.0000000000000000e+00 0.0000000000000000e+00 0.0000000000000000e+00  0.0000000000000000e+00 0.0000000000000000e+00 0.0000000000000000e+00  0.0000000000000000e+00 0.0000000000000000e+00 0.0000000000000000e+00  0.0000000000000000e+00 0.0000000000000000e+00 0.0000000000000000e+00  0.0000000000000000e+00 0.0000000000000000e+00 0.0000000000000000e+00  1.2833367901588690e+00 7.2055024580669480e-01 0.0000000000000000e+00  0.0000000000000000e+00 0.0000000000000000e+00 0.0000000000000000e+00  0.0000000000000000e+00 0.0000000000000000e+00 0.0000000000000000e+00  0.0000000000000000e+00 0.0000000000000000e+00 0.0000000000000000e+00  0.0000000000000000e+00 0.0000000000000000e+00 0.0000000000000000e+00  0.0000000000000000e+00 0.0000000000000000e+00 0.0000000000000000e+00  0.0000000000000000e+00 0.0000000000000000e+00 0.0000000000000000e+00  0.0000000000000000e+00 0.0000000000000000e+00 0.0000000000000000e+00  0.0000000000000000e+00 0.0000000000000000e+00 0.0000000000000000e+00  0.0000000000000000e+00 0.0000000000000000e+00 0.0000000000000000e+00  0.0000000000000000e+00 0.0000000000000000e+00 0.0000000000000000e+00  0.0000000000000000e+00 0.0000000000000000e+00 0.0000000000000000e+00  0.0000000000000000e+00 0.0000000000000000e+00 0.0000000000000000e+00  0.0000000000000000e+00 0.0000000000000000e+00 0.0000000000000000e+00  0.0000000000000000e+00 0.0000000000000000e+00 0.0000000000000000e+00  0.0000000000000000e+00 0.0000000000000000e+00 0.0000000000000000e+00  0.0000000000000000e+00 0.0000000000000000e+00 0.0000000000000000e+00  0.0000000000000000e+00 0.0000000000000000e+00 0.0000000000000000e+00  0.0000000000000000e+00 0.0000000000000000e+00 0.0000000000000000e+00  6.8219852916279999e-01 4.9046055976861756e-02 0.0000000000000000e+00  2.7347896821038198e-01 -4.3284732336295978e-01 0.0000000000000000e+00  1.6275383978147280e+00 2.8697070413077908e-01 0.0000000000000000e+00  7.0011916053485979e-01 -6.5036495876548595e-01 0.0000000000000000e+00  1.2980059112985640e+00 3.7365860014008689e-01 0.0000000000000000e+00  9.9973600494636505e-01 -7.1259466432554963e-01 0.0000000000000000e+00  1.1668200802942170e+00 -3.2156655535562417e-01 0.0000000000000000e+00  9.0155794712738646e-01 2.8134392683678941e-02 0.0000000000000000e+00  1.3573512458466797e+00 -1.5731377120387657e-01 0.0000000000000000e+00  1.3927327977588764e+00 -2.0476028312723576e-02 0.0000000000000000e+00  1.6712167483723797e+00 -5.4556707522484005e-01 0.0000000000000000e+00  1.3064604592606373e+00 -6.2836759855750988e-03 0.0000000000000000e+00  1.7265061917183844e+00 6.8608701113858495e-01 0.0000000000000000e+00  2.2018854363728591e+00 -2.7806399027006146e-01 0.0000000000000000e+00  8.7367446997781184e-01 -3.9199519110580366e-01 0.0000000000000000e+00  1.4339370384779115e+00 -3.2152158986084328e-01 0.0000000000000000e+00  1.4044526379712681e+00 -3.5108299050961855e-02 0.0000000000000000e+00  1.9061889887497698e+00 -9.7723706362077278e-03 0.0000000000000000e+00  1.3227315478844399e+00 -8.8275925633748453e-01 0.0000000000000000e+00  1.6185418476516222e+00 -6.7253126104285343e-01 0.0000000000000000e+00  1.1454030450202033e+00 2.6522530594079424e-02 0.0000000000000000e+00  1.9813074453164015e+00 -1.4912413663807580e+00 0.0000000000000000e+00  9.7422961670047914e-01 -6.5030756951666835e-01 0.0000000000000000e+00  -2.3988511669927609e-01 1.0822997003744381e+00 0.0000000000000000e+00  1.3995892211771053e+00 2.4636342825424348e-01 0.0000000000000000e+00  1.2247653908181559e+00 1.1363050872335374e-01 0.0000000000000000e+00  3.9831916768669257e-01 -8.3554854269448187e-01 0.0000000000000000e+00  8.5077912706691505e-01 -5.1683596456029253e-03 0.0000000000000000e+00  2.8465185534882198e-01 -3.3620826959337730e-01 0.0000000000000000e+00  1.9960613891877629e-01 -2.7084171716253141e-01 0.0000000000000000e+00  -1.2185930471858014e-01 -1.2930042561189917e-01 0.0000000000000000e+00  2.0713962057074098e+00 -6.6425458422913497e-01 0.0000000000000000e+00  1.2518596613154289e+00 -2.9688634112345108e-01 0.0000000000000000e+00  5.8929345403183442e-01 7.1418680131797571e-02 0.0000000000000000e+00  4.0162703111837039e-01 2.5207397797978803e-01 0.0000000000000000e+00  1.8453709251055100e-01 3.2896440495479590e-01 0.0000000000000000e+00  1.1609572532734158e+00 4.1705980490413896e-01 0.0000000000000000e+00  6.9771995480236892e-01 -4.8235344653701512e-01 0.0000000000000000e+00  1.9043772985275598e+00 -9.0525931215752442e-01 0.0000000000000000e+00  1.3314487410506053e+00 3.4396818148490371e-01 0.0000000000000000e+00  5.8387916474710633e-01 -2.0073362100625655e-01 0.0000000000000000e+00  5.7742642580586381e-02 -2.6539405059806498e-01 0.0000000000000000e+00  5.4909854592778296e-01 -1.7139089606293911e-01 0.0000000000000000e+00  9.3864179838903583e-01 -8.0615999105794200e-02 0.0000000000000000e+00  4.7487841631468558e-01 -2.0993885629007386e-01 0.0000000000000000e+00  3.8102249095570317e-01 1.5422781685250138e-02 0.0000000000000000e+00  -2.0008103437597899e-01 7.2433648886805289e-03 0.0000000000000000e+00  7.9906982566479379e-01 4.5769354614265623e-02 0.0000000000000000e+00  6.8871405664065255e-01 -4.4550109679450012e-01 0.0000000000000000e+00  6.5625010145486751e-01 0.0000000000000000e+00 0.0000000000000000e+00  8.6655235324678559e-01 -3.3657604816235531e-02 0.0000000000000000e+00  6.1949824908850082e-01 1.4341932495020382e-01 0.0000000000000000e+00  2.3251216321058985e-01 -5.0984811497014204e-01 0.0000000000000000e+00  9.1030023423126738e-01 2.1341703281620436e-01 0.0000000000000000e+00  5.9742081123705459e-01 1.9332705331221159e-01 0.0000000000000000e+00  2.0181371574774727e+00 7.5587435573803674e-01 0.0000000000000000e+00  1.4210264208781904e+00 -5.2283717873740809e-01 0.0000000000000000e+00  7.7351852144553224e-01 1.2211128149112054e+00 0.0000000000000000e+00  2.0056656070546062e+00 -3.3002695085839778e-01 0.0000000000000000e+00  5.1761624669460493e-01 1.3767060125246233e+00 0.0000000000000000e+00  3.8180078217769919e-01 2.4884671562375466e-01 0.0000000000000000e+00  1.2389191240661723e+00 6.3005621500503248e-02 0.0000000000000000e+00  1.6898346551694445e+00 -6.3512433088201825e-01 0.0000000000000000e+00  2.3245986391869442e+00 1.5193733145808888e+00 0.0000000000000000e+00  1.8500108209674366e+00 1.6045856096216282e-01 0.0000000000000000e+00  8.1314282667710860e-02 1.0339931257012843e-02 0.0000000000000000e+00  7.8349289190447480e-01 -9.0697092701777915e-01 0.0000000000000000e+00  9.4685309478668989e-01 -1.1952017693146734e-01 0.0000000000000000e+00  3.8272516326410422e-01 5.6828595671762994e-01 0.0000000000000000e+00  1.7231377341187666e+00 -5.8620127192578475e-01 0.0000000000000000e+00  1.8472719911108346e-01 8.1088037126005863e-01 0.0000000000000000e+00  1.7601687594257314e+00 1.1559675416805515e-01 0.0000000000000000e+00  1.4569003207420137e+00 -6.5852761844812216e-02 0.0000000000000000e+00  1.3446069188009460e+00 -6.4285404747860186e-01 0.0000000000000000e+00  1.1298024938444988e+00 -3.6459331924356486e-01 0.0000000000000000e+00  1.3190569012459952e+00 4.1871664032519335e-01 0.0000000000000000e+00  -4.4992117784927697e-02 2.6781203942397858e-01 0.0000000000000000e+00  1.1400029985868461e+00 8.5178328312060880e-01 0.0000000000000000e+00  1.8066737274247475e+00 7.8798927556456044e-01 0.0000000000000000e+00  1.3413577773989438e+00 3.0999725577715276e-01 0.0000000000000000e+00  1.3491873140683108e+00 8.2347740979296635e-01 0.0000000000000000e+00  1.1279675787935042e+00 1.1389922321594139e+00 0.0000000000000000e+00  9.0811727576367907e-01 -1.6764212215458407e-01 0.0000000000000000e+00  1.1211805304841000e+00 -1.0442885556309642e+00 0.0000000000000000e+00  2.2669428764783710e+00 -7.7503687675323341e-02 0.0000000000000000e+00  1.4980511892355071e+00 2.6627327496804748e-01 0.0000000000000000e+00  8.0678892460295137e-01 -7.8731641606769709e-02 0.0000000000000000e+00  1.3819590564540445e+00 -1.4407440582447376e-02 0.0000000000000000e+00  1.8903007593772814e-01 2.7412692730376303e-01 0.0000000000000000e+00  1.5586529137620160e+00 -3.0406271293173737e-01 0.0000000000000000e+00  1.9981399088156122e+00 -9.2504512709097619e-01 0.0000000000000000e+00  1.6947811358899940e+00 -1.0563329829265611e+00 0.0000000000000000e+00  5.6487338076842697e-01 -1.0531728521752347e-01 0.0000000000000000e+00  1.3161235532922841e+00 -5.8729792503926459e-02 0.0000000000000000e+00  1.0162084099321802e+00 2.1767113945670427e-01 0.0000000000000000e+00  -1.6625606982365951e-01 4.8011058126391892e-02 0.0000000000000000e+00  5.6456880026730805e-01 1.2311770178582897e-01 0.0000000000000000e+00  3.9678006389649761e-01 5.7428345501099695e-02 0.0000000000000000e+00  8.8863904042843500e-01 -6.3210712796222845e-01 0.0000000000000000e+00  9.3984825543613248e-01 1.7311153485862621e-01 0.0000000000000000e+00  1.0524368823815982e+00 2.3398198974501744e-01 0.0000000000000000e+00  1.2342661467213429e+00 -4.0926459020193456e-01 0.0000000000000000e+00  1.4419629267652745e+00 -6.9289063732923584e-01 0.0000000000000000e+00  9.3835133631517598e-01 -3.0539738972922692e-01 0.0000000000000000e+00  1.9189948897781599e+00 9.1848044767735437e-01 0.0