<?xml version="1.0"?>
<VTKFile type="UnstructuredGrid"  version="0.1"  >
<UnstructuredGrid>
<Piece  NumberOfPoints="4269" NumberOfCells="8234">
<Points>
<DataArray  type="Float64"  NumberOfComponents="3"  format="ascii">0 1 0  0 0 0  7.5 0 0  7.5 1 0  1.197537668119028 0.5812868930080463 0  1.2 0.55 0  1.197537668119028 0.5187131069919538 0  1.190211303259031 0.4881966011250105 0  1.178201304837674 0.4592019000520907 0  1.161803398874989 0.4324429495415054 0  1.141421356237309 0.4085786437626905 0  1.117557050458495 0.3881966011250105 0  1.090798099947909 0.3717986951623264 0  1.06180339887499 0.3597886967409693 0  1.031286893008046 0.3524623318809725 0  1 0.35 0  0.9687131069919538 0.3524623318809725 0  0.9381966011250105 0.3597886967409694 0  0.9092019000520906 0.3717986951623264 0  0.8824429495415054 0.3881966011250105 0  0.8585786437626904 0.4085786437626905 0  0.8381966011250105 0.4324429495415054 0  0.8217986951623264 0.4592019000520907 0  0.8097886967409692 0.4881966011250107 0  0.8024623318809725 0.5187131069919539 0  0.8 0.55 0  0.8024623318809725 0.5812868930080463 0  0.8097886967409693 0.6118033988749896 0  0.8217986951623264 0.6407980999479095 0  0.8381966011250105 0.6675570504584947 0  0.8585786437626906 0.6914213562373096 0  0.8824429495415054 0.7118033988749896 0  0.9092019000520907 0.7282013048376736 0  0.9381966011250106 0.7402113032590307 0  0.9687131069919539 0.7475376681190276 0  1 0.75 0  1.031286893008046 0.7475376681190276 0  1.06180339887499 0.7402113032590307 0  1.090798099947909 0.7282013048376736 0  1.117557050458495 0.7118033988749896 0  1.141421356237309 0.6914213562373095 0  1.161803398874989 0.6675570504584947 0  1.178201304837674 0.6407980999479094 0  1.190211303259031 0.6118033988749896 0  3.75 0 0  3.75 1 0  1.875 0 0  1.875 1 0  0.9375 0 0  0.9375 1 0  1.40625 1 0  5.625 1 0  5.625 0 0  2.8125 1 0  2.8125 0 0  4.6875 0 0  4.6875 1 0  6.5625 0 0  6.5625 1 0  5.15625 0.5 0  4.21875 0.5 0  2.34375 0.5 0  3.28125 0.5 0  6.09375 0.5 0  7.5 0.5 0  6.897916666666666 0.5 0  1.842708333333333 0.5 0  0 0.5 0  0.46875 0 0  5.625 0.5302734375 0  7.03125 0 0  6.09375 1 0  2.8125 0.4697265625 0  3.28125 0 0  2.34375 1 0  2.34375 0 0  3.75 0.4697265625 0  4.21875 0 0  4.21875 1 0  4.6875 0.5302734375 0  3.28125 1 0  5.15625 0 0  6.09375 0 0  5.15625 1 0  0.46875 1 0  1.40625 0 0  7.03125 1 0  0.3954638734376499 0.5975780249976004 0  6.495833333333334 0.4072265624999998 0  5.859375 0.25 0  4.905729166666666 0.26513671875 0  4.453125 0.25 0  3.531770833333333 0.73486328125 0  3.968229166666667 0.73486328125 0  2.594270833333333 0.73486328125 0  3.030729166666667 0.73486328125 0  6.328125 0.75 0  7.198958333333334 0.3125000000000002 0  7.198958333333334 0.6874999999999998 0  5.390625 0.25 0  0 0.25 0  2.109375 0.75 0  2.109375 0.25 0  1.51921323205749 0.3418883887525936 0  1.522346610178253 0.6811769608297746 0  5.375456746419271 0.75 0  4.921875 0.76513671875 0  4.437956746419271 0.75 0  3.984375 0.23486328125 0  3.500456746419271 0.25 0  2.578125 0.23486328125 0  3.046875 0.23486328125 0  5.874543253580729 0.75 0  6.642123189445656 0.6909095493086836 0  6.746354166666666 0.2391688368055553 0  0.3197109619185111 0.2850049285972083 0  6.328125 0 0  0.6313375889370429 0.2351325552547357 0  0 0.75 0  6.252283381534729 0.2693808819694041 0  0.234375 1 0  6.948437500000001 0.7543055555555555 0  0.5934018769555939 0.7694151657947577 0  1.858854166666667 0.75 0  1.858854166666667 0.25 0  1.640625 0 0  2.093229166666667 0.5 0  7.5 0.25 0  3.282227579752604 0.75 0  7.5 0.75 0  1.171875 0 0  1.303539853147731 0.2235426933121065 0  5.148177083333333 0.2575683593749998 0  2.351822916666667 0.742431640625 0  1.640625 1 0  4.202380413457425 0.7645435094236485 0  3.047822985053062 0.4701848030090332 0  2.577177014946938 0.4701848030090332 0  4.672792740482199 0.76513671875 0  4.922822985053062 0.5298151969909668 0  5.390593497949761 0.5156244924311331 0  5.610292740482199 0.76513671875 0  3.516602579752604 0.5 0  4.45496853898097 0.4865915990446593 0  5.85753146101903 0.4865915990446593 0  3.749511210123698 0.23486328125 0  3.983397420247396 0.4999999999999999 0  2.343497975411212 0.2346270081980111 0  4.219002024588788 0.2346270081980111 0  0.703125 0 0  2.8125 0.2343755075688669 0  3.046875 0 0  2.578125 0 0  3.515625 0 0  3.984375 0 0  4.453125 1 0  5.390625 1 0  2.109375 0 0  2.109375 1 0  5.625 0.2921402030705575 0  5.390625 0 0  7.265625 0 0  6.796875 0 0  6.328125 1 0  3.046875 1 0  2.578125 1 0  3.984375 1 0  3.515625 1 0  4.453125 0 0  4.921875 0 0  5.859375 0 0  0.703125 1 0  1.171875 1 0  7.265625 1 0  4.921875 1 0  5.859375 1 0  0.234375 0 0  6.796875 1 0  6.980310975276531 0.2285890127127066 0  5.149170481934885 0.772689292163473 0  3.274170481934884 0.2273107078365268 0  6.101334126790364 0.7722468376159667 0  4.678005340872584 0.3000799877067239 0  2.8125 0.6921051326382495 0  3.75 0.6921051326382495 0  0.3515624999999999 0.8134571721668546 0  0.4990405774417521 0.4070099317153735 0  0.1789273931360182 0.625 0  6.31239060814315 0.5298877111157968 0  6.456979773992304 0.1917956348713352 0  6.699870808919271 0.4406293402777773 0  1.337539480965883 0.7944303676599538 0  6.058675797563041 0.2019812164653516 0  0.8203125 0.1643029084422534 0  0.1480856513011711 0.375 0  1.090769294689562 0.1719186776982972 0  7.291088163206459 0.5 0  7.094502414936563 0.5197902199074071 0  0.6046212059042245 0.5730066483871106 0  1.707231580809486 0.6342709161352207 0  1.685961352504593 0.8193269193390785 0  1.374721602852827 0.4600373025865813 0  6.486415510043844 0.5916440776477192 0  1.5234375 0.1508863828685116 0  1.707925830421689 0.3657739208189008 0  0.1674513225045584 0.8278776664019765 0  7.138268756771176 0.1438183366439137 0  7.1484375 0.8616388888888887 0  7.328562530764119 0.819498462930605 0  4.101073710123698 0.3678637200736647 0  1.693878467219965 0.1911955120941053 0  1.577566745468488 0.5110082404081502 0  6.6796875 0.8653871806883484 0  6.498039504430512 0.825568433346395 0  0.7562556668576472 0.8333197949571929 0  4.101045914668806 0.6255195807449272 0  5.030745188395182 0.382829047309028 0  2.476364945868651 0.6095868094762166 0  2.729359843907322 0.8460525663191247 0  2.9296875 0.8740763101564099 0  3.163518307559356 0.6254622797994247 0  3.666859843907322 0.8460525663191247 0  3.8671875 0.8740763101564099 0  4.8046875 0.12592368984359 0  3.14936031382311 0.8606990583876851 0  2.4609375 0.8747622921397776 0  5.023140791101972 0.1392266772452574 0  0 0.125 0  0.1759922923594607 0.1727589856739889 0  4.5703125 0.125 0  7.327755777818006 0.1766156770456191 0  5.5078125 0.125 0  5.719712725029036 0.1460701015352787 0  4.327848962028002 0.3674169956512513 0  5.982681121544351 0.3692637923021713 0  3.398926289876302 0.6245417594909667 0  5.281756792511996 0.3827993367299961 0  2.226822645963271 0.6252438868405666 0  2.234390064317166 0.8676616584526566 0  5.2734375 0.125 0  1.96796875 0.382568359375 0  2.234651037971999 0.3674169956512511 0  1.984114583333333 0.132568359375 0  1.9921875 0.875 0  1.984114583333333 0.632568359375 0  5.748733794462357 0.8678269127183313 0  3.3984375 0.875456329184688 0  1.512925924995415 0.8582958012121853 0  1.359299372802969 0.6275861864990343 0  4.810521420483513 0.4041767793635395 0  0.2996213306116602 0.455339710363317 0  5.999933717403708 0.6388425470751088 0  5.250033449003657 0.6388713364551682 0  3.631676045992918 0.3525406652400928 0  4.3359375 0.8816499670325881 0  4.343577437052484 0.6116511299909198 0  3.375033449003656 0.3611286635448316 0  5.763152151652243 0.6249404690537395 0  4.549347848347757 0.6249404690537396 0  5.5004588702411 0.6403667365776566 0  5.976118394847484 0.8816230218343086 0  5.054722486865804 0.6338007028640954 0  3.164542163493752 0.3520519332736524 0  2.445407482032355 0.3672168403687257 0  4.8046875 0.882568359375 0  4.1015625 0.117431640625 0  2.4609375 0.117431640625 0  2.695556894938151 0.3520510350344335 0  2.929443105061849 0.3520510350344335 0  3.881979231817319 0.3670559016511187 0  3.8671875 0.117431640625 0  4.805389247695744 0.6470047893641744 0  3.399370721942191 0.1184066543556767 0  5.274370721942192 0.881593345644323 0  3.618253274934649 0.1316869186284249 0  2.6953125 0.1171877537844335 0  2.9296875 0.1171877537844335 0  2.21873344389451 0.125 0  4.3359375 0.1171877625080073 0  0.6659898565672709 0.3986593551313873 0  7.363359022954956 0.3481046411219251 0  7.363359022954956 0.6518953588780749 0  5.487719392831826 0.3828237631077121 0  2.695054578344725 0.5809158475691247 0  2.944553877887707 0.5964065668438148 0  0.3515625 0.1201898858097106 0  5.5078125 1 0  4.5703125 1 0  5.031746201297604 0.882568359375 0  3.1640625 0 0  6.2109375 1 0  6.186845385763124 0.6336356480571081 0  4.1015625 1 0  6.810399074069772 0.6495574751396682 0  0.4740615253480797 0.2509287743856873 0  7.052064303830151 0.3684417917792242 0  6.195177069665382 0.1216488332168849 0  5.72300154718324 0.4112068202852788 0  3.879157465495092 0.6111892850691246 0  3.645760045247695 0.5809158475691247 0  6.868257400485771 0.3427840810237202 0  6.612030892260864 0.1521752713064389 0  6.615666885941117 0.3151079644097221 0  4.04296875 0.8633718902669071 0  1.183031453639096 0.8486801864185936 0  6.9140625 0 0  6.859079526500421 0.1398292786950638 0  6.808232443325651 0.7957411753922057 0  6.9140625 1 0  4.544955211100143 0.3675874343205077 0  1.0546875 1 0  6.122060236165557 0.3316791557072867 0  0.5859375 0 0  5.9765625 0 0  5.44921875 0.870984788733638 0  4.51171875 0.870984788733638 0  0.7608354256382215 0.2931261274224557 0  6.386875332239937 0.3156583003094978 0  6.985654756850997 0.6147408423643147 0  6.223797257919172 0.8535621912121121 0  5.936822413218736 0.1338376546337823 0  6.23933008800134 0.4095573603773768 0  0.5414022462152697 0.1305482677949959 0  6.331360438104348 0.1370086318183389 0  0.956404929269873 0.1374266563647954 0  1.2890625 1 0  0.691305981127761 0.6764829884281737 0  3.531251607241209 0.8678916320952239 0  2.59787442813022 
[...]
<PointData  Vectors="f_71627"> 
<DataArray  type="Float64"  Name="f_71627"  NumberOfComponents="3" format="ascii">0.0000000000000000e+00 0.0000000000000000e+00 0.0000000000000000e+00  0.0000000000000000e+00 0.0000000000000000e+00 0.0000000000000000e+00  0.0000000000000000e+00 0.0000000000000000e+00 0.0000000000000000e+00  0.0000000000000000e+00 0.0000000000000000e+00 0.0000000000000000e+00  0.0000000000000000e+00 0.0000000000000000e+00 0.0000000000000000e+00  0.0000000000000000e+00 0.0000000000000000e+00 0.0000000000000000e+00  0.0000000000000000e+00 0.0000000000000000e+00 0.0000000000000000e+00  0.0000000000000000e+00 0.0000000000000000e+00 0.0000000000000000e+00  0.0000000000000000e+00 0.0000000000000000e+00 0.0000000000000000e+00  0.0000000000000000e+00 0.0000000000000000e+00 0.0000000000000000e+00  0.0000000000000000e+00 0.0000000000000000e+00 0.0000000000000000e+00  0.0000000000000000e+00 0.0000000000000000e+00 0.0000000000000000e+00  0.0000000000000000e+00 0.0000000000000000e+00 0.0000000000000000e+00  0.0000000000000000e+00 0.0000000000000000e+00 0.0000000000000000e+00  0.0000000000000000e+00 0.0000000000000000e+00 0.0000000000000000e+00  0.0000000000000000e+00 0.0000000000000000e+00 0.0000000000000000e+00  0.0000000000000000e+00 0.0000000000000000e+00 0.0000000000000000e+00  0.0000000000000000e+00 0.0000000000000000e+00 0.0000000000000000e+00  0.0000000000000000e+00 0.0000000000000000e+00 0.0000000000000000e+00  0.0000000000000000e+00 0.0000000000000000e+00 0.0000000000000000e+00  0.0000000000000000e+00 0.0000000000000000e+00 0.0000000000000000e+00  0.0000000000000000e+00 0.0000000000000000e+00 0.0000000000000000e+00  0.0000000000000000e+00 0.0000000000000000e+00 0.0000000000000000e+00  0.0000000000000000e+00 0.0000000000000000e+00 0.0000000000000000e+00  0.0000000000000000e+00 0.0000000000000000e+00 0.0000000000000000e+00  0.0000000000000000e+00 0.0000000000000000e+00 0.0000000000000000e+00  0.0000000000000000e+00 0.0000000000000000e+00 0.0000000000000000e+00  0.0000000000000000e+00 0.0000000000000000e+00 0.0000000000000000e+00  0.0000000000000000e+00 0.0000000000000000e+00 0.0000000000000000e+00  0.0000000000000000e+00 0.0000000000000000e+00 0.0000000000000000e+00  0.0000000000000000e+00 0.0000000000000000e+00 0.0000000000000000e+00  0.0000000000000000e+00 0.0000000000000000e+00 0.0000000000000000e+00  0.0000000000000000e+00 0.0000000000000000e+00 0.0000000000000000e+00  0.0000000000000000e+00 0.0000000000000000e+00 0.0000000000000000e+00  0.0000000000000000e+00 0.0000000000000000e+00 0.0000000000000000e+00  0.0000000000000000e+00 0.0000000000000000e+00 0.0000000000000000e+00  0.0000000000000000e+00 0.0000000000000000e+00 0.0000000000000000e+00  0.0000000000000000e+00 0.0000000000000000e+00 0.0000000000000000e+00  0.0000000000000000e+00 0.0000000000000000e+00 0.0000000000000000e+00  0.0000000000000000e+00 0.0000000000000000e+00 0.0000000000000000e+00  0.0000000000000000e+00 0.0000000000000000e+00 0.0000000000000000e+00  0.0000000000000000e+00 0.0000000000000000e+00 0.0000000000000000e+00  0.0000000000000000e+00 0.0000000000000000e+00 0.0000000000000000e+00  0.0000000000000000e+00 0.0000000000000000e+00 0.0000000000000000e+00  0.0000000000000000e+00 0.0000000000000000e+00 0.0000000000000000e+00  0.0000000000000000e+00 0.0000000000000000e+00 0.0000000000000000e+00  0.0000000000000000e+00 0.0000000000000000e+00 0.0000000000000000e+00  0.0000000000000000e+00 0.0000000000000000e+00 0.0000000000000000e+00  0.0000000000000000e+00 0.0000000000000000e+00 0.0000000000000000e+00  0.0000000000000000e+00 0.0000000000000000e+00 0.0000000000000000e+00  0.0000000000000000e+00 0.0000000000000000e+00 0.0000000000000000e+00  0.0000000000000000e+00 0.0000000000000000e+00 0.0000000000000000e+00  0.0000000000000000e+00 0.0000000000000000e+00 0.0000000000000000e+00  0.0000000000000000e+00 0.0000000000000000e+00 0.0000000000000000e+00  0.0000000000000000e+00 0.0000000000000000e+00 0.0000000000000000e+00  0.0000000000000000e+00 0.0000000000000000e+00 0.0000000000000000e+00  0.0000000000000000e+00 0.0000000000000000e+00 0.0000000000000000e+00  0.0000000000000000e+00 0.0000000000000000e+00 0.0000000000000000e+00  0.0000000000000000e+00 0.0000000000000000e+00 0.0000000000000000e+00  1.1362098369945910e+00 -4.7400328868883145e-03 0.0000000000000000e+00  1.0129003747798528e+00 -4.6763027913288729e-01 0.0000000000000000e+00  1.7693335749224097e+00 1.1250041734156020e+00 0.0000000000000000e+00  1.8667191382024326e+00 1.4361519027804842e-01 0.0000000000000000e+00  1.1345390361586738e+00 -1.0714618947586547e-03 0.0000000000000000e+00  1.5000002153946703e+00 0.0000000000000000e+00 0.0000000000000000e+00  1.2097120986407814e+00 -1.3746540583104844e-03 0.0000000000000000e+00  1.0048014301128374e+00 -1.1344827815882277e+00 0.0000000000000000e+00  1.5000002153946703e+00 0.0000000000000000e+00 0.0000000000000000e+00  0.0000000000000000e+00 0.0000000000000000e+00 0.0000000000000000e+00  1.1431183092401533e+00 4.1681988084917532e-05 0.0000000000000000e+00  0.0000000000000000e+00 0.0000000000000000e+00 0.0000000000000000e+00  0.0000000000000000e+00 0.0000000000000000e+00 0.0000000000000000e+00  1.3111695811842001e+00 -2.0996952224913548e-01 0.0000000000000000e+00  0.0000000000000000e+00 0.0000000000000000e+00 0.0000000000000000e+00  0.0000000000000000e+00 0.0000000000000000e+00 0.0000000000000000e+00  0.0000000000000000e+00 0.0000000000000000e+00 0.0000000000000000e+00  6.2289421498584818e-01 3.4661953854492855e-01 0.0000000000000000e+00  0.0000000000000000e+00 0.0000000000000000e+00 0.0000000000000000e+00  0.0000000000000000e+00 0.0000000000000000e+00 0.0000000000000000e+00  1.1432362396792441e+00 -4.5244126215343225e-02 0.0000000000000000e+00  0.0000000000000000e+00 0.0000000000000000e+00 0.0000000000000000e+00  0.0000000000000000e+00 0.0000000000000000e+00 0.0000000000000000e+00  0.0000000000000000e+00 0.0000000000000000e+00 0.0000000000000000e+00  0.0000000000000000e+00 0.0000000000000000e+00 0.0000000000000000e+00  0.0000000000000000e+00 0.0000000000000000e+00 0.0000000000000000e+00  0.0000000000000000e+00 0.0000000000000000e+00 0.0000000000000000e+00  0.0000000000000000e+00 0.0000000000000000e+00 0.0000000000000000e+00  1.3684059751270217e+00 2.3325728033488719e-02 0.0000000000000000e+00  1.1564859124648292e+00 -3.5850228279858784e-03 0.0000000000000000e+00  1.1391139612080732e+00 -8.8257661497104101e-05 0.0000000000000000e+00  1.1106691394939099e+00 -1.0082411938790701e-02 0.0000000000000000e+00  1.0214255955768825e+00 -6.6537503295476211e-02 0.0000000000000000e+00  1.1033865476761993e+00 1.2073987107322344e+00 0.0000000000000000e+00  1.7551244433696513e+00 -1.2571180763422324e-03 0.0000000000000000e+00  1.2660679869394285e+00 -2.2435274071674411e-02 0.0000000000000000e+00  7.0534471397283094e-01 -5.0440439771829837e-01 0.0000000000000000e+00  1.1413623197132328e+00 -5.6126267012258002e-04 0.0000000000000000e+00  8.6647761317488858e-01 -3.8898740209465797e-03 0.0000000000000000e+00  9.8596376574412437e-01 1.3015772767348874e-02 0.0000000000000000e+00  1.1257556770182360e+00 -3.0160014122316355e-04 0.0000000000000000e+00  1.1250001615460026e+00 0.0000000000000000e+00 0.0000000000000000e+00  -1.8976619850054074e-01 -6.1249562132780506e-03 0.0000000000000000e+00  2.2460154900185150e+00 8.4309582650293180e-01 0.0000000000000000e+00  6.2730580620501200e-02 5.1555757314526951e-01 0.0000000000000000e+00  1.5405704564211233e+00 -5.5570355446833963e-01 0.0000000000000000e+00  1.1401080714030309e+00 -1.5269416791391382e-04 0.0000000000000000e+00  1.1531935562759403e+00 -3.3862876809624622e-03 0.0000000000000000e+00  1.2540878130270787e+00 -3.3784750475524962e-02 0.0000000000000000e+00  6.9784082322698038e-01 -1.5552957258673657e-03 0.0000000000000000e+00  1.1251235581588537e+00 3.2679999428300155e-01 0.0000000000000000e+00  8.7646586147677252e-01 -2.0053208911338166e-01 0.0000000000000000e+00  1.4058993107461988e+00 -4.5990932738258172e-01 0.0000000000000000e+00  1.1426935537039862e+00 -8.2372563796290720e-04 0.0000000000000000e+00  1.1236634872551103e+00 -2.8461168754085085e-04 0.0000000000000000e+00  1.1309070143805176e+00 -1.1309174077768092e-02 0.0000000000000000e+00  1.2208636252981200e+00 -5.1310547495088413e-02 0.0000000000000000e+00  0.0000000000000000e+00 0.0000000000000000e+00 0.0000000000000000e+00  1.1910487061487158e+00 -2.6410395639155043e-01 0.0000000000000000e+00  1.1250001615460026e+00 0.0000000000000000e+00 0.0000000000000000e+00  1.1445962693155280e+00 2.5938411854426477e-03 0.0000000000000000e+00  0.0000000000000000e+00 0.0000000000000000e+00 0.0000000000000000e+00  1.2715983045846533e+00 -2.5312066452552150e-03 0.0000000000000000e+00  1.0954246622754193e+00 2.5971552277005000e-01 0.0000000000000000e+00  1.0732066063718859e+00 -3.4365715341842412e-01 0.0000000000000000e+00  1.9695039828406973e+00 -1.6943166363474794e-02 0.0000000000000000e+00  0.0000000000000000e+00 0.0000000000000000e+00 0.0000000000000000e+00  1.4906588117054229e+00 1.8650549599916907e-01 0.0000000000000000e+00  1.1250001615460026e+00 0.0000000000000000e+00 0.0000000000000000e+00  2.6867097630024611e-01 2.5728680651560304e-01 0.0000000000000000e+00  1.1250001615460026e+00 0.0000000000000000e+00 0.0000000000000000e+00  0.0000000000000000e+00 0.0000000000000000e+00 0.0000000000000000e+00  2.0060006927240481e+00 1.3351802472167276e-01 0.0000000000000000e+00  1.1233905303977247e+00 -2.7086274319992128e-03 0.0000000000000000e+00  7.1805552970344799e-01 7.0604917623585195e-01 0.0000000000000000e+00  0.0000000000000000e+00 0.0000000000000000e+00 0.0000000000000000e+00  1.5039126029822076e+00 -2.2884082131159902e-01 0.0000000000000000e+00  2.0950772032564693e+00 -7.1959825950844281e-01 0.0000000000000000e+00  1.4067413177303236e+00 3.7280164990807517e-02 0.0000000000000000e+00  1.1787620600091253e+00 -1.2718045818967669e-02 0.0000000000000000e+00  1.1379779995678727e+00 -1.4014071007869751e-02 0.0000000000000000e+00  1.1392286680738344e+00 -2.8131078709920775e-04 0.0000000000000000e+00  1.1417532828888510e+00 7.5705580548269895e-04 0.0000000000000000e+00  1.2347703139103043e+00 1.2856333380706206e+00 0.0000000000000000e+00  1.1355977837488480e+00 -1.3935281846417114e-01 0.0000000000000000e+00  1.1459084517262346e+00 5.9988002181540913e-05 0.0000000000000000e+00  6.9484398344764675e-01 8.9207143842755729e-02 0.0000000000000000e+00  1.0253685226682696e+00 -3.2487939892423040e-01 0.0000000000000000e+00  1.0904207494031368e+00 2.4073838919168253e-01 0.0000000000000000e+00  8.6670315305744416e-01 -1.2756574320809089e-01 0.0000000000000000e+00  0.0000000000000000e+00 0.0000000000000000e+00 0.0000000000000000e+00  1.0780812141926146e+00 4.1502401017636470e-01 0.0000000000000000e+00  0.0000000000000000e+00 0.0000000000000000e+00 0.0000000000000000e+00  0.0000000000000000e+00 0.0000000000000000e+00 0.0000000000000000e+00  0.0000000000000000e+00 0.0000000000000000e+00 0.0000000000000000e+00  0.0000000000000000e+00 0.0000000000000000e+00 0.0000000000000000e+00  0.0000000000000000e+00 0.0000000000000000e+00 0.0000000000000000e+00  0.0000000000000000e+00 0.0000000000000000e+00 0.0000000000000000e+00  0.0000000000000000e+00 0.0000000000000000e+00 0.0000000000000000e+00  0.0000000000000000e+00 0.0000000000000000e+00 0.0000000000000000e+00  1.1300191795169932e+00 -7.8310560582042999e-05 0.0000000000000000e+00  0.0000000000000000e+00 0.0000000000000000e+00 0.0000000000000000e+00  0.0000000000000000e+00 0.0000000000000000e+00 0.0000000000000000e+00  0.0000000000000000e+00 0.0000000000000000e+00 0.0000000000000000e+00  0.0000000000000000e+00 0.0000000000000000e+00 0.0000000000000000e+00  0.0000000000000000e+00 0.0000000000000000e+00 0.0000000000000000e+00  0.0000000000000000e+00 0.0000000000000000e+00 0.0000000000000000e+00  0.0000000000000000e+00 0.0000000000000000e+00 0.0000000000000000e+00  0.0000000000000000e+00 0.0000000000000000e+00 0.0000000000000000e+00  0.0000000000000000e+00 0.0000000000000000e+00 0.0000000000000000e+00  0.0000000000000000e+00 0.0000000000000000e+00 0.0000000000000000e+00  0.0000000000000000e+00 0.0000000000000000e+00 0.0000000000000000e+00  0.0000000000000000e+00 0.0000000000000000e+00 0.0000000000000000e+00  0.0000000000000000e+00 0.0000000000000000e+00 0.0000000000000000e+00  0.0000000000000000e+00 0.0000000000000000e+00 0.0000000000000000e+00  0.0000000000000000e+00 0.0000000000000000e+00 0.0000000000000000e+00  0.0000000000000000e+00 0.0000000000000000e+00 0.0000000000000000e+00  0.0000000000000000e+00 0.0000000000000000e+00 0.0000000000000000e+00  0.0000000000000000e+00 0.0000000000000000e+00 0.0000000000000000e+00  1.1768658283994464e+00 1.9796106054714505e-03 0.0000000000000000e+00  1.1436005606576551e+00 -5.8709994119233576e-04 0.0000000000000000e+00  1.6053813253852636e+00 -3.7309133498252778e-01 0.0000000000000000e+00  1.1419267397323611e+00 -1.4913184464492521e-03 0.0000000000000000e+00  1.0966277207654578e+00 -3.6653084364409734e-02 0.0000000000000000e+00  1.2344564832696130e+00 -4.4808677109815326e-01 0.0000000000000000e+00  1.9630151559337166e+00 2.1764139302093169e-01 0.0000000000000000e+00  9.2558189267251578e-01 5.1894865142572598e-02 0.0000000000000000e+00  1.3378097130798192e+00 -1.0881090707557385e-01 0.0000000000000000e+00  1.3939829268722583e+00 9.3785153355070282e-04 0.0000000000000000e+00  1.1387876504878462e+00 -1.1561081988883499e-03 0.0000000000000000e+00  1.1578396386119938e+00 -3.1536632698996275e-03 0.0000000000000000e+00  1.1898655856533460e+00 -7.3174999240598485e-03 0.0000000000000000e+00  2.4103841156183061e+00 -1.5629516001087007e-01 0.0000000000000000e+00  1.1422311394261040e+00 1.5664397673944433e-03 0.0000000000000000e+00  1.3487126192388523e+00 -3.1942340396891772e-01 0.0000000000000000e+00  1.4033487311213493e+00 -1.8896306030522985e-02 0.0000000000000000e+00  1.8604745409825854e+00 -1.1910250512623177e-01 0.0000000000000000e+00  1.3818156061378011e+00 2.5817187271215659e-03 0.0000000000000000e+00  1.3626312496381898e+00 3.0969162359643799e-03 0.0000000000000000e+00  1.1561874611269658e+00 9.1592840773094653e-02 0.0000000000000000e+00  1.7242493793309031e+00 -1.5711373007056633e+00 0.0000000000000000e+00  1.6097676833992693e+00 -8.2769159606175247e-01 0.0000000000000000e+00  -1.1031521276002947e+00 9.8320707665175222e-01 0.0000000000000000e+00  1.1440862188766801e+00 -1.8964016901787354e-03 0.0000000000000000e+00  1.6749275544376196e+00 4.7972812841154067e-02 0.0000000000000000e+00  -6.8466383208677775e-02 -5.7815868357261035e-01 0.0000000000000000e+00  8.5677669042570692e-01 9.0734281902378339e-03 0.0000000000000000e+00  8.9847477493302941e-01 -1.4454970285328207e-03 0.0000000000000000e+00  1.0087414600338260e+00 -1.5354422676942400e-03 0.0000000000000000e+00  8.0414297900718190e-01 -4.8843914537706539e-03 0.0000000000000000e+00  7.4677750606440418e-01 -2.5065737065273069e-01 0.0000000000000000e+00  1.8233872056009446e+00 -8.5323294346747403e-02 0.0000000000000000e+00  3.3487377997067463e-01 -2.1228438034059163e-01 0.0000000000000000e+00  1.0878956159347413e+00 8.6706476658462654e-03 0.0000000000000000e+00  1.0605601518787962e+00 -3.6726177817888593e-03 0.0000000000000000e+00  1.2543122362452346e+00 4.5738069181239049e-01 0.0000000000000000e+00  1.4894725978564076e+00 -3.2529669785349835e-01 0.0000000000000000e+00  1.1285391940616247e+00 -9.6519068236773919e-03 0.0000000000000000e+00  1.3256959709699341e+00 4.8725687307486770e-01 0.0000000000000000e+00  8.2973571036649463e-01 -7.3039123659579402e-02 0.0000000000000000e+00  6.9405440717919945e-02 -4.7431584077499922e-01 0.0000000000000000e+00  1.2528864771438861e+00 -3.8721720273909083e-01 0.0000000000000000e+00  1.1753432970892792e+00 2.1122272035606918e-01 0.0000000000000000e+00  1.2717177411641956e+00 -5.8644255024363386e-03 0.0000000000000000e+00  1.0105531059591970e+00 -3.3800293424037717e-03 0.0000000000000000e+00  -5.4440203422738191e-02 -9.7630508241872055e-02 0.0000000000000000e+00  1.0996901858450503e+00 1.8492951063926146e-02 0.0000000000000000e+00  1.0544352723023960e+00 4.8205361255405704e-04 0.0000000000000000e+00  6.5625009423516834e-01 0.0000000000000000e+00 0.0000000000000000e+00  8.6182179400219261e-01 -2.0775287730832426e-02 0.0000000000000000e+00  9.7852849294486410e-01 -1.0738634297894168e-02 0.0000000000000000e+00  5.7687625848687873e-01 2.6839563841444126e-02 0.0000000000000000e+00  1.0307142469888704e+00 1.2791728417332383e-03 0.0000000000000000e+00  1.0808978403809189e+00 -1.0191546577915779e-04 0.0000000000000000e+00  1.0243961584147649e+00 -1.7676690469130418e-01 0.0000000000000000e+00  1.1235135889683061e+00 -5.4754318243208219e-04 0.0000000000000000e+00  1.2968689427996871e+00 9.6622898904330512e-01 0.0000000000000000e+00  1.1319727990717514e+00 -2.0586038647836739e-03 0.0000000000000000e+00  8.8989267358722279e-01 1.0085016887180138e+00 0.0000000000000000e+00  3.1493413753114313e-01 2.5507058500775148e-01 0.0000000000000000e+00  1.0300210222487205e+00 -1.4346928571150735e-05 0.0000000000000000e+00  1.2611819356558704e+00 -5.7105926203854496e-01 0.0000000000000000e+00  2.3402889890338714e+00 1.1868662387575895e+00 0.0000000000000000e+00  1.7424893116477649e+00 3.3037559742722072e-01 0.0000000000000000e+00  3.3584940034364014e-01 1.6427081118702463e-01 0.0000000000000000e+00  7.0336979837402414e-01 -9.7121670490410250e-01 0.0000000000000000e+00  1.0513412164672402e+00 7.0480972579328673e-04 0.0000000000000000e+00  1.4248789942861453e-01 3.4894875411834858e-01 0.0000000000000000e+00  2.0157097479288981e+00 -6.2186253782814749e-01 0.0000000000000000e+00  5.2710110026059553e-01 6.2509967572246472e-01 0.0000000000000000e+00  1.1218495781762940e+00 -2.4133533378650405e-02 0.0000000000000000e+00  1.4527796804669795e+00 -3.0387997900238776e-02 0.0000000000000000e+00  1.1407122283479048e+00 7.2689616857081753e-05 0.0000000000000000e+00  1.1445400644271726e+00 -2.6464542852396959e-03 0.0000000000000000e+00  7.7532432396288931e-01 4.6508066374405166e-01 0.0000000000000000e+00  1.0406736849187093e+00 3.0510760902876639e-03 0.0000000000000000e+00  1.2999957544209078e+00 -2.0948382526718956e-01 0.0000000000000000e+00  1.7150342547049595e+00 4.8094069541400791e-01 0.0000000000000000e+00  1.1449625162002146e+00 -3.7825630437570443e-04 0.0000000000000000e+00  1.1925379999729080e+00 -4.8838835830385612e-02 0.0000000000000000e+00  1.1466891939971524e+00 -1.2986652907881480e-03 0.0000000000000000e+00  1.0168470286480036e+00 1.4459451087252887e-03 0.0000000000000000e+00  1.1474668122176905e+00 -6.4225633414377592e-03 0.0000000000000000e+00  2.1487844703051300e+00 -7.8760434552310277e-01 0.0000000000000000e+00  1.6436196095016433e+00 1.6877011829085117e-01 0.0000000000000000e+00  1.0093973547252328e+00 1.9870522571302524e-03 0.0000000000000000e+00  7.8262785494375031e-01 -3.7231481949001721e-02 0.0000000000000000e+00  4.4569804894196285e-01 -1.1031759923875603e-01 0.0000000000000000e+00  1.1665932398943892e+00 -1.7676289203886614e-01 0.0000000000000000e+00  1.9928316471884115e+00 -3.0412406223900335e-02 0.0000000000000000e+00  5.5571695740206006e-01 -7.4567717069430786e-02 0.0000000000000000e+00  7.4497026473505057e-01 4.0288468148051711e-02 0.0000000000000000e+00  1.1636408765022517e+00 -1.9638811144274605e-02 0.0000000000000000e+00  1.0587848446466446e+00 5.0329932642790641e-02 0.0000000000000000e+00  1.0083491717438382e+00 -2.5927064177598579e-04 0.0000000000000000e+00  8.9534701995134414e-01 1.0934715580258617e-01 0.0000000000000000e+00  6.2932547155630092e-01 3.5570704159908942e-02 0.0000000000000000e+00  1.3496863989399427e-01 8.5474425325635595e-02 0.0000000000000000e+00  5.7855081520436880e-01 2.3061924613750762e-01 0.0000000000000000e+00  9.0351302756660457e-01 -2.8677938046389528e-02 0.0000000000000000e+00  1.1932489533918553e+00 -3.4895191112864027e-01 0.0000000000000000e+00  1.0127770333682709e+00 -7.4806865088121819e-03 0.0000000000000000e+00  1.0998350370552386e+00 1.0161145658819815e-02 0.0000000000000000e+00  1.1325950756372118e+00 -1.027453939213