<?xml version="1.0"?>
<VTKFile type="UnstructuredGrid"  version="0.1"  >
<UnstructuredGrid>
<Piece  NumberOfPoints="4269" NumberOfCells="8234">
<Points>
<DataArray  type="Float64"  NumberOfComponents="3"  format="ascii">0 1 0  0 0 0  7.5 0 0  7.5 1 0  1.197537668119028 0.5812868930080463 0  1.2 0.55 0  1.197537668119028 0.5187131069919538 0  1.190211303259031 0.4881966011250105 0  1.178201304837674 0.4592019000520907 0  1.161803398874989 0.4324429495415054 0  1.141421356237309 0.4085786437626905 0  1.117557050458495 0.3881966011250105 0  1.090798099947909 0.3717986951623264 0  1.06180339887499 0.3597886967409693 0  1.031286893008046 0.3524623318809725 0  1 0.35 0  0.9687131069919538 0.3524623318809725 0  0.9381966011250105 0.3597886967409694 0  0.9092019000520906 0.3717986951623264 0  0.8824429495415054 0.3881966011250105 0  0.8585786437626904 0.4085786437626905 0  0.8381966011250105 0.4324429495415054 0  0.8217986951623264 0.4592019000520907 0  0.8097886967409692 0.4881966011250107 0  0.8024623318809725 0.5187131069919539 0  0.8 0.55 0  0.8024623318809725 0.5812868930080463 0  0.8097886967409693 0.6118033988749896 0  0.8217986951623264 0.6407980999479095 0  0.8381966011250105 0.6675570504584947 0  0.8585786437626906 0.6914213562373096 0  0.8824429495415054 0.7118033988749896 0  0.9092019000520907 0.7282013048376736 0  0.9381966011250106 0.7402113032590307 0  0.9687131069919539 0.7475376681190276 0  1 0.75 0  1.031286893008046 0.7475376681190276 0  1.06180339887499 0.7402113032590307 0  1.090798099947909 0.7282013048376736 0  1.117557050458495 0.7118033988749896 0  1.141421356237309 0.6914213562373095 0  1.161803398874989 0.6675570504584947 0  1.178201304837674 0.6407980999479094 0  1.190211303259031 0.6118033988749896 0  3.75 0 0  3.75 1 0  1.875 0 0  1.875 1 0  0.9375 0 0  0.9375 1 0  1.40625 1 0  5.625 1 0  5.625 0 0  2.8125 1 0  2.8125 0 0  4.6875 0 0  4.6875 1 0  6.5625 0 0  6.5625 1 0  5.15625 0.5 0  4.21875 0.5 0  2.34375 0.5 0  3.28125 0.5 0  6.09375 0.5 0  7.5 0.5 0  6.897916666666666 0.5 0  1.842708333333333 0.5 0  0 0.5 0  0.46875 0 0  5.625 0.5302734375 0  7.03125 0 0  6.09375 1 0  2.8125 0.4697265625 0  3.28125 0 0  2.34375 1 0  2.34375 0 0  3.75 0.4697265625 0  4.21875 0 0  4.21875 1 0  4.6875 0.5302734375 0  3.28125 1 0  5.15625 0 0  6.09375 0 0  5.15625 1 0  0.46875 1 0  1.40625 0 0  7.03125 1 0  0.3954638734376499 0.5975780249976004 0  6.495833333333334 0.4072265624999998 0  5.859375 0.25 0  4.905729166666666 0.26513671875 0  4.453125 0.25 0  3.531770833333333 0.73486328125 0  3.968229166666667 0.73486328125 0  2.594270833333333 0.73486328125 0  3.030729166666667 0.73486328125 0  6.328125 0.75 0  7.198958333333334 0.3125000000000002 0  7.198958333333334 0.6874999999999998 0  5.390625 0.25 0  0 0.25 0  2.109375 0.75 0  2.109375 0.25 0  1.51921323205749 0.3418883887525936 0  1.522346610178253 0.6811769608297746 0  5.375456746419271 0.75 0  4.921875 0.76513671875 0  4.437956746419271 0.75 0  3.984375 0.23486328125 0  3.500456746419271 0.25 0  2.578125 0.23486328125 0  3.046875 0.23486328125 0  5.874543253580729 0.75 0  6.642123189445656 0.6909095493086836 0  6.746354166666666 0.2391688368055553 0  0.3197109619185111 0.2850049285972083 0  6.328125 0 0  0.6313375889370429 0.2351325552547357 0  0 0.75 0  6.252283381534729 0.2693808819694041 0  0.234375 1 0  6.948437500000001 0.7543055555555555 0  0.5934018769555939 0.7694151657947577 0  1.858854166666667 0.75 0  1.858854166666667 0.25 0  1.640625 0 0  2.093229166666667 0.5 0  7.5 0.25 0  3.282227579752604 0.75 0  7.5 0.75 0  1.171875 0 0  1.303539853147731 0.2235426933121065 0  5.148177083333333 0.2575683593749998 0  2.351822916666667 0.742431640625 0  1.640625 1 0  4.202380413457425 0.7645435094236485 0  3.047822985053062 0.4701848030090332 0  2.577177014946938 0.4701848030090332 0  4.672792740482199 0.76513671875 0  4.922822985053062 0.5298151969909668 0  5.390593497949761 0.5156244924311331 0  5.610292740482199 0.76513671875 0  3.516602579752604 0.5 0  4.45496853898097 0.4865915990446593 0  5.85753146101903 0.4865915990446593 0  3.749511210123698 0.23486328125 0  3.983397420247396 0.4999999999999999 0  2.343497975411212 0.2346270081980111 0  4.219002024588788 0.2346270081980111 0  0.703125 0 0  2.8125 0.2343755075688669 0  3.046875 0 0  2.578125 0 0  3.515625 0 0  3.984375 0 0  4.453125 1 0  5.390625 1 0  2.109375 0 0  2.109375 1 0  5.625 0.2921402030705575 0  5.390625 0 0  7.265625 0 0  6.796875 0 0  6.328125 1 0  3.046875 1 0  2.578125 1 0  3.984375 1 0  3.515625 1 0  4.453125 0 0  4.921875 0 0  5.859375 0 0  0.703125 1 0  1.171875 1 0  7.265625 1 0  4.921875 1 0  5.859375 1 0  0.234375 0 0  6.796875 1 0  6.980310975276531 0.2285890127127066 0  5.149170481934885 0.772689292163473 0  3.274170481934884 0.2273107078365268 0  6.101334126790364 0.7722468376159667 0  4.678005340872584 0.3000799877067239 0  2.8125 0.6921051326382495 0  3.75 0.6921051326382495 0  0.3515624999999999 0.8134571721668546 0  0.4990405774417521 0.4070099317153735 0  0.1789273931360182 0.625 0  6.31239060814315 0.5298877111157968 0  6.456979773992304 0.1917956348713352 0  6.699870808919271 0.4406293402777773 0  1.337539480965883 0.7944303676599538 0  6.058675797563041 0.2019812164653516 0  0.8203125 0.1643029084422534 0  0.1480856513011711 0.375 0  1.090769294689562 0.1719186776982972 0  7.291088163206459 0.5 0  7.094502414936563 0.5197902199074071 0  0.6046212059042245 0.5730066483871106 0  1.707231580809486 0.6342709161352207 0  1.685961352504593 0.8193269193390785 0  1.374721602852827 0.4600373025865813 0  6.486415510043844 0.5916440776477192 0  1.5234375 0.1508863828685116 0  1.707925830421689 0.3657739208189008 0  0.1674513225045584 0.8278776664019765 0  7.138268756771176 0.1438183366439137 0  7.1484375 0.8616388888888887 0  7.328562530764119 0.819498462930605 0  4.101073710123698 0.3678637200736647 0  1.693878467219965 0.1911955120941053 0  1.577566745468488 0.5110082404081502 0  6.6796875 0.8653871806883484 0  6.498039504430512 0.825568433346395 0  0.7562556668576472 0.8333197949571929 0  4.101045914668806 0.6255195807449272 0  5.030745188395182 0.382829047309028 0  2.476364945868651 0.6095868094762166 0  2.729359843907322 0.8460525663191247 0  2.9296875 0.8740763101564099 0  3.163518307559356 0.6254622797994247 0  3.666859843907322 0.8460525663191247 0  3.8671875 0.8740763101564099 0  4.8046875 0.12592368984359 0  3.14936031382311 0.8606990583876851 0  2.4609375 0.8747622921397776 0  5.023140791101972 0.1392266772452574 0  0 0.125 0  0.1759922923594607 0.1727589856739889 0  4.5703125 0.125 0  7.327755777818006 0.1766156770456191 0  5.5078125 0.125 0  5.719712725029036 0.1460701015352787 0  4.327848962028002 0.3674169956512513 0  5.982681121544351 0.3692637923021713 0  3.398926289876302 0.6245417594909667 0  5.281756792511996 0.3827993367299961 0  2.226822645963271 0.6252438868405666 0  2.234390064317166 0.8676616584526566 0  5.2734375 0.125 0  1.96796875 0.382568359375 0  2.234651037971999 0.3674169956512511 0  1.984114583333333 0.132568359375 0  1.9921875 0.875 0  1.984114583333333 0.632568359375 0  5.748733794462357 0.8678269127183313 0  3.3984375 0.875456329184688 0  1.512925924995415 0.8582958012121853 0  1.359299372802969 0.6275861864990343 0  4.810521420483513 0.4041767793635395 0  0.2996213306116602 0.455339710363317 0  5.999933717403708 0.6388425470751088 0  5.250033449003657 0.6388713364551682 0  3.631676045992918 0.3525406652400928 0  4.3359375 0.8816499670325881 0  4.343577437052484 0.6116511299909198 0  3.375033449003656 0.3611286635448316 0  5.763152151652243 0.6249404690537395 0  4.549347848347757 0.6249404690537396 0  5.5004588702411 0.6403667365776566 0  5.976118394847484 0.8816230218343086 0  5.054722486865804 0.6338007028640954 0  3.164542163493752 0.3520519332736524 0  2.445407482032355 0.3672168403687257 0  4.8046875 0.882568359375 0  4.1015625 0.117431640625 0  2.4609375 0.117431640625 0  2.695556894938151 0.3520510350344335 0  2.929443105061849 0.3520510350344335 0  3.881979231817319 0.3670559016511187 0  3.8671875 0.117431640625 0  4.805389247695744 0.6470047893641744 0  3.399370721942191 0.1184066543556767 0  5.274370721942192 0.881593345644323 0  3.618253274934649 0.1316869186284249 0  2.6953125 0.1171877537844335 0  2.9296875 0.1171877537844335 0  2.21873344389451 0.125 0  4.3359375 0.1171877625080073 0  0.6659898565672709 0.3986593551313873 0  7.363359022954956 0.3481046411219251 0  7.363359022954956 0.6518953588780749 0  5.487719392831826 0.3828237631077121 0  2.695054578344725 0.5809158475691247 0  2.944553877887707 0.5964065668438148 0  0.3515625 0.1201898858097106 0  5.5078125 1 0  4.5703125 1 0  5.031746201297604 0.882568359375 0  3.1640625 0 0  6.2109375 1 0  6.186845385763124 0.6336356480571081 0  4.1015625 1 0  6.810399074069772 0.6495574751396682 0  0.4740615253480797 0.2509287743856873 0  7.052064303830151 0.3684417917792242 0  6.195177069665382 0.1216488332168849 0  5.72300154718324 0.4112068202852788 0  3.879157465495092 0.6111892850691246 0  3.645760045247695 0.5809158475691247 0  6.868257400485771 0.3427840810237202 0  6.612030892260864 0.1521752713064389 0  6.615666885941117 0.3151079644097221 0  4.04296875 0.8633718902669071 0  1.183031453639096 0.8486801864185936 0  6.9140625 0 0  6.859079526500421 0.1398292786950638 0  6.808232443325651 0.7957411753922057 0  6.9140625 1 0  4.544955211100143 0.3675874343205077 0  1.0546875 1 0  6.122060236165557 0.3316791557072867 0  0.5859375 0 0  5.9765625 0 0  5.44921875 0.870984788733638 0  4.51171875 0.870984788733638 0  0.7608354256382215 0.2931261274224557 0  6.386875332239937 0.3156583003094978 0  6.985654756850997 0.6147408423643147 0  6.223797257919172 0.8535621912121121 0  5.936822413218736 0.1338376546337823 0  6.23933008800134 0.4095573603773768 0  0.5414022462152697 0.1305482677949959 0  6.331360438104348 0.1370086318183389 0  0.956404929269873 0.1374266563647954 0  1.2890625 1 0  0.691305981127761 0.6764829884281737 0  3.531251607241209 0.8678916320952239 0  2.59787442813022 
[...]
<PointData  Vectors="f_71627"> 
<DataArray  type="Float64"  Name="f_71627"  NumberOfComponents="3" format="ascii">0.0000000000000000e+00 0.0000000000000000e+00 0.0000000000000000e+00  0.0000000000000000e+00 0.0000000000000000e+00 0.0000000000000000e+00  0.0000000000000000e+00 0.0000000000000000e+00 0.0000000000000000e+00  0.0000000000000000e+00 0.0000000000000000e+00 0.0000000000000000e+00  0.0000000000000000e+00 0.0000000000000000e+00 0.0000000000000000e+00  0.0000000000000000e+00 0.0000000000000000e+00 0.0000000000000000e+00  0.0000000000000000e+00 0.0000000000000000e+00 0.0000000000000000e+00  0.0000000000000000e+00 0.0000000000000000e+00 0.0000000000000000e+00  0.0000000000000000e+00 0.0000000000000000e+00 0.0000000000000000e+00  0.0000000000000000e+00 0.0000000000000000e+00 0.0000000000000000e+00  0.0000000000000000e+00 0.0000000000000000e+00 0.0000000000000000e+00  0.0000000000000000e+00 0.0000000000000000e+00 0.0000000000000000e+00  0.0000000000000000e+00 0.0000000000000000e+00 0.0000000000000000e+00  0.0000000000000000e+00 0.0000000000000000e+00 0.0000000000000000e+00  0.0000000000000000e+00 0.0000000000000000e+00 0.0000000000000000e+00  0.0000000000000000e+00 0.0000000000000000e+00 0.0000000000000000e+00  0.0000000000000000e+00 0.0000000000000000e+00 0.0000000000000000e+00  0.0000000000000000e+00 0.0000000000000000e+00 0.0000000000000000e+00  0.0000000000000000e+00 0.0000000000000000e+00 0.0000000000000000e+00  0.0000000000000000e+00 0.0000000000000000e+00 0.0000000000000000e+00  0.0000000000000000e+00 0.0000000000000000e+00 0.0000000000000000e+00  0.0000000000000000e+00 0.0000000000000000e+00 0.0000000000000000e+00  0.0000000000000000e+00 0.0000000000000000e+00 0.0000000000000000e+00  0.0000000000000000e+00 0.0000000000000000e+00 0.0000000000000000e+00  0.0000000000000000e+00 0.0000000000000000e+00 0.0000000000000000e+00  0.0000000000000000e+00 0.0000000000000000e+00 0.0000000000000000e+00  0.0000000000000000e+00 0.0000000000000000e+00 0.0000000000000000e+00  0.0000000000000000e+00 0.0000000000000000e+00 0.0000000000000000e+00  0.0000000000000000e+00 0.0000000000000000e+00 0.0000000000000000e+00  0.0000000000000000e+00 0.0000000000000000e+00 0.0000000000000000e+00  0.0000000000000000e+00 0.0000000000000000e+00 0.0000000000000000e+00  0.0000000000000000e+00 0.0000000000000000e+00 0.0000000000000000e+00  0.0000000000000000e+00 0.0000000000000000e+00 0.0000000000000000e+00  0.0000000000000000e+00 0.0000000000000000e+00 0.0000000000000000e+00  0.0000000000000000e+00 0.0000000000000000e+00 0.0000000000000000e+00  0.0000000000000000e+00 0.0000000000000000e+00 0.0000000000000000e+00  0.0000000000000000e+00 0.0000000000000000e+00 0.0000000000000000e+00  0.0000000000000000e+00 0.0000000000000000e+00 0.0000000000000000e+00  0.0000000000000000e+00 0.0000000000000000e+00 0.0000000000000000e+00  0.0000000000000000e+00 0.0000000000000000e+00 0.0000000000000000e+00  0.0000000000000000e+00 0.0000000000000000e+00 0.0000000000000000e+00  0.0000000000000000e+00 0.0000000000000000e+00 0.0000000000000000e+00  0.0000000000000000e+00 0.0000000000000000e+00 0.0000000000000000e+00  0.0000000000000000e+00 0.0000000000000000e+00 0.0000000000000000e+00  0.0000000000000000e+00 0.0000000000000000e+00 0.0000000000000000e+00  0.0000000000000000e+00 0.0000000000000000e+00 0.0000000000000000e+00  0.0000000000000000e+00 0.0000000000000000e+00 0.0000000000000000e+00  0.0000000000000000e+00 0.0000000000000000e+00 0.0000000000000000e+00  0.0000000000000000e+00 0.0000000000000000e+00 0.0000000000000000e+00  0.0000000000000000e+00 0.0000000000000000e+00 0.0000000000000000e+00  0.0000000000000000e+00 0.0000000000000000e+00 0.0000000000000000e+00  0.0000000000000000e+00 0.0000000000000000e+00 0.0000000000000000e+00  0.0000000000000000e+00 0.0000000000000000e+00 0.0000000000000000e+00  0.0000000000000000e+00 0.0000000000000000e+00 0.0000000000000000e+00  0.0000000000000000e+00 0.0000000000000000e+00 0.0000000000000000e+00  0.0000000000000000e+00 0.0000000000000000e+00 0.0000000000000000e+00  0.0000000000000000e+00 0.0000000000000000e+00 0.0000000000000000e+00  0.0000000000000000e+00 0.0000000000000000e+00 0.0000000000000000e+00  0.0000000000000000e+00 0.0000000000000000e+00 0.0000000000000000e+00  1.1346421521226226e+00 -3.9260282315992569e-03 0.0000000000000000e+00  1.0575305574360292e+00 -4.1572774520617523e-01 0.0000000000000000e+00  1.6449173221037954e+00 8.8985888491457399e-01 0.0000000000000000e+00  1.7835180653181451e+00 5.2796336681363587e-01 0.0000000000000000e+00  1.1335774892654655e+00 -1.0383336136879438e-03 0.0000000000000000e+00  1.5000002137349082e+00 0.0000000000000000e+00 0.0000000000000000e+00  1.2090946070432140e+00 -1.4754905241003871e-03 0.0000000000000000e+00  9.3753906036926471e-01 -1.0482878960136248e+00 0.0000000000000000e+00  1.5000002137349082e+00 0.0000000000000000e+00 0.0000000000000000e+00  0.0000000000000000e+00 0.0000000000000000e+00 0.0000000000000000e+00  1.1421136268525502e+00 5.0195498910693970e-05 0.0000000000000000e+00  0.0000000000000000e+00 0.0000000000000000e+00 0.0000000000000000e+00  0.0000000000000000e+00 0.0000000000000000e+00 0.0000000000000000e+00  1.4657266236107598e+00 -3.1492335494582752e-01 0.0000000000000000e+00  0.0000000000000000e+00 0.0000000000000000e+00 0.0000000000000000e+00  0.0000000000000000e+00 0.0000000000000000e+00 0.0000000000000000e+00  0.0000000000000000e+00 0.0000000000000000e+00 0.0000000000000000e+00  6.2857048474241006e-01 1.2660762993338118e-01 0.0000000000000000e+00  0.0000000000000000e+00 0.0000000000000000e+00 0.0000000000000000e+00  0.0000000000000000e+00 0.0000000000000000e+00 0.0000000000000000e+00  1.1412305432755256e+00 -3.6510852352877328e-02 0.0000000000000000e+00  0.0000000000000000e+00 0.0000000000000000e+00 0.0000000000000000e+00  0.0000000000000000e+00 0.0000000000000000e+00 0.0000000000000000e+00  0.0000000000000000e+00 0.0000000000000000e+00 0.0000000000000000e+00  0.0000000000000000e+00 0.0000000000000000e+00 0.0000000000000000e+00  0.0000000000000000e+00 0.0000000000000000e+00 0.0000000000000000e+00  0.0000000000000000e+00 0.0000000000000000e+00 0.0000000000000000e+00  0.0000000000000000e+00 0.0000000000000000e+00 0.0000000000000000e+00  1.3703327303277419e+00 3.3209573800213027e-02 0.0000000000000000e+00  1.1556480024824625e+00 -3.5731651863768984e-03 0.0000000000000000e+00  1.1381935453857850e+00 -2.2237458184629656e-05 0.0000000000000000e+00  1.1111053049260429e+00 -8.4679505187868851e-03 0.0000000000000000e+00  1.0377949115116025e+00 -4.9183221254146064e-02 0.0000000000000000e+00  1.3747350423740090e+00 1.0940194966099321e+00 0.0000000000000000e+00  1.5730338420475782e+00 5.7126091959077210e-02 0.0000000000000000e+00  1.4664101349554512e+00 -2.6342431349380924e-01 0.0000000000000000e+00  6.1769983723766653e-01 -4.2206248257396983e-01 0.0000000000000000e+00  1.1404122196615971e+00 -5.5946950247333404e-04 0.0000000000000000e+00  8.6440939658225535e-01 -3.5862903684372783e-03 0.0000000000000000e+00  9.8467427847962352e-01 1.3436475924516082e-02 0.0000000000000000e+00  1.1251187850002946e+00 -3.5450714240381611e-04 0.0000000000000000e+00  1.1250001603011812e+00 0.0000000000000000e+00 0.0000000000000000e+00  -1.6707211161625363e-01 2.3830979915598860e-01 0.0000000000000000e+00  2.1647368639545572e+00 9.0042657297838746e-01 0.0000000000000000e+00  -7.2270785565789794e-02 3.5405337311473889e-01 0.0000000000000000e+00  1.5433982709189735e+00 -6.5753977384754370e-01 0.0000000000000000e+00  1.1390995105507580e+00 -2.7846987416661745e-04 0.0000000000000000e+00  1.1515055279138511e+00 -2.6077137419094104e-03 0.0000000000000000e+00  1.2371063056753879e+00 -4.0097539557540918e-02 0.0000000000000000e+00  7.2026870871435233e-01 -3.9743086572646760e-02 0.0000000000000000e+00  1.0123560709002146e+00 3.1142762033629190e-01 0.0000000000000000e+00  8.9729955840769682e-01 -1.9022206593523433e-01 0.0000000000000000e+00  1.4928168823788301e+00 -7.0744667670746386e-01 0.0000000000000000e+00  1.1416374253233910e+00 -8.3882648031713110e-04 0.0000000000000000e+00  1.1227079935104567e+00 1.6023176510313915e-04 0.0000000000000000e+00  1.1305723724219501e+00 -1.0879187555842152e-02 0.0000000000000000e+00  1.2177717280852411e+00 -4.4311776390056366e-02 0.0000000000000000e+00  0.0000000000000000e+00 0.0000000000000000e+00 0.0000000000000000e+00  1.1777203079344847e+00 -2.5815867784634206e-01 0.0000000000000000e+00  1.1250001603011812e+00 0.0000000000000000e+00 0.0000000000000000e+00  1.1440061665277175e+00 2.8840087892654607e-03 0.0000000000000000e+00  0.0000000000000000e+00 0.0000000000000000e+00 0.0000000000000000e+00  1.2715132532735682e+00 -3.1367877316938824e-03 0.0000000000000000e+00  1.1079926311236015e+00 2.6847188642936692e-01 0.0000000000000000e+00  9.1964046542891753e-01 -3.1881184967597020e-01 0.0000000000000000e+00  2.2365235287722554e+00 1.7366770892251451e-01 0.0000000000000000e+00  0.0000000000000000e+00 0.0000000000000000e+00 0.0000000000000000e+00  1.5558447458149147e+00 5.2649964047617603e-01 0.0000000000000000e+00  1.1250001603011812e+00 0.0000000000000000e+00 0.0000000000000000e+00  2.9070906490799536e-01 4.7634730601400976e-01 0.0000000000000000e+00  1.1250001603011812e+00 0.0000000000000000e+00 0.0000000000000000e+00  0.0000000000000000e+00 0.0000000000000000e+00 0.0000000000000000e+00  2.0018434838755139e+00 8.4805250649264474e-02 0.0000000000000000e+00  1.1232343978284434e+00 -2.2602673116862582e-03 0.0000000000000000e+00  8.6871922930955126e-01 5.6268078239348207e-01 0.0000000000000000e+00  0.0000000000000000e+00 0.0000000000000000e+00 0.0000000000000000e+00  1.4543075466700666e+00 -1.8660996383502784e-01 0.0000000000000000e+00  2.1348303439534928e+00 -7.8846625736700937e-01 0.0000000000000000e+00  1.3611268709367674e+00 -4.1132836840795522e-02 0.0000000000000000e+00  1.1718874784724562e+00 -1.2778308196258902e-02 0.0000000000000000e+00  1.1378745205507521e+00 -1.2433229681690366e-02 0.0000000000000000e+00  1.1382027855677166e+00 -1.2883565499276483e-04 0.0000000000000000e+00  1.1409904665514949e+00 8.9491474439023361e-04 0.0000000000000000e+00  1.1425982599964679e+00 1.2110628999410467e+00 0.0000000000000000e+00  1.1341868759201985e+00 -1.1141770396023358e-01 0.0000000000000000e+00  1.1448945639224113e+00 9.7335894953579793e-05 0.0000000000000000e+00  6.2677485056558579e-01 3.4846284023768867e-02 0.0000000000000000e+00  1.0476203372007398e+00 -3.2969843966502549e-01 0.0000000000000000e+00  1.0339742353168231e+00 2.2303590484579184e-02 0.0000000000000000e+00  9.0046868547525272e-01 -1.1639525411539403e-01 0.0000000000000000e+00  0.0000000000000000e+00 0.0000000000000000e+00 0.0000000000000000e+00  1.0072847631213340e+00 5.3934475339141386e-01 0.0000000000000000e+00  0.0000000000000000e+00 0.0000000000000000e+00 0.0000000000000000e+00  0.0000000000000000e+00 0.0000000000000000e+00 0.0000000000000000e+00  0.0000000000000000e+00 0.0000000000000000e+00 0.0000000000000000e+00  0.0000000000000000e+00 0.0000000000000000e+00 0.0000000000000000e+00  0.0000000000000000e+00 0.0000000000000000e+00 0.0000000000000000e+00  0.0000000000000000e+00 0.0000000000000000e+00 0.0000000000000000e+00  0.0000000000000000e+00 0.0000000000000000e+00 0.0000000000000000e+00  0.0000000000000000e+00 0.0000000000000000e+00 0.0000000000000000e+00  1.1290622975294033e+00 -8.3493062510671005e-05 0.0000000000000000e+00  0.0000000000000000e+00 0.0000000000000000e+00 0.0000000000000000e+00  0.0000000000000000e+00 0.0000000000000000e+00 0.0000000000000000e+00  0.0000000000000000e+00 0.0000000000000000e+00 0.0000000000000000e+00  0.0000000000000000e+00 0.0000000000000000e+00 0.0000000000000000e+00  0.0000000000000000e+00 0.0000000000000000e+00 0.0000000000000000e+00  0.0000000000000000e+00 0.0000000000000000e+00 0.0000000000000000e+00  0.0000000000000000e+00 0.0000000000000000e+00 0.0000000000000000e+00  0.0000000000000000e+00 0.0000000000000000e+00 0.0000000000000000e+00  0.0000000000000000e+00 0.0000000000000000e+00 0.0000000000000000e+00  0.0000000000000000e+00 0.0000000000000000e+00 0.0000000000000000e+00  0.0000000000000000e+00 0.0000000000000000e+00 0.0000000000000000e+00  0.0000000000000000e+00 0.0000000000000000e+00 0.0000000000000000e+00  0.0000000000000000e+00 0.0000000000000000e+00 0.0000000000000000e+00  0.0000000000000000e+00 0.0000000000000000e+00 0.0000000000000000e+00  0.0000000000000000e+00 0.0000000000000000e+00 0.0000000000000000e+00  0.0000000000000000e+00 0.0000000000000000e+00 0.0000000000000000e+00  0.0000000000000000e+00 0.0000000000000000e+00 0.0000000000000000e+00  0.0000000000000000e+00 0.0000000000000000e+00 0.0000000000000000e+00  1.1753861718545739e+00 -9.9567226956681398e-05 0.0000000000000000e+00  1.1417915313173590e+00 -7.0855686818083749e-04 0.0000000000000000e+00  1.7262846642586360e+00 5.6310547052396825e-02 0.0000000000000000e+00  1.1410562942540394e+00 -1.5555700506217590e-03 0.0000000000000000e+00  1.1007076668671860e+00 -2.9318535006660453e-02 0.0000000000000000e+00  1.2081278758636287e+00 -5.2818363283077541e-01 0.0000000000000000e+00  2.1003848590813270e+00 -4.4210645257992592e-02 0.0000000000000000e+00  9.3162969206422397e-01 5.7352320567758887e-02 0.0000000000000000e+00  1.3329908289336605e+00 -9.8065981160486218e-02 0.0000000000000000e+00  1.3944070182273709e+00 6.6490819858837343e-03 0.0000000000000000e+00  1.1377146088809120e+00 -1.2082814708629902e-03 0.0000000000000000e+00  1.1576942097509970e+00 -2.1599400866064303e-03 0.0000000000000000e+00  1.1889417198284973e+00 -7.2864339300018344e-03 0.0000000000000000e+00  2.4511083682934163e+00 -2.1171873354443557e-01 0.0000000000000000e+00  1.1418430322569997e+00 1.5995966906400144e-03 0.0000000000000000e+00  1.3289333875378064e+00 -3.1802831261477266e-01 0.0000000000000000e+00  1.4030156926405271e+00 -1.4372325105032330e-02 0.0000000000000000e+00  1.8450667658645856e+00 -1.3597580134737941e-01 0.0000000000000000e+00  1.3820801861214234e+00 2.6614000988989923e-03 0.0000000000000000e+00  1.3626593250513273e+00 3.1513728681847658e-03 0.0000000000000000e+00  1.1589400581722835e+00 1.0595869023454912e-01 0.0000000000000000e+00  1.5347925000152332e+00 -1.5011873453166396e+00 0.0000000000000000e+00  1.5441678059471553e+00 -7.5667344074642595e-01 0.0000000000000000e+00  -1.1953355864993747e+00 9.2551647149232419e-01 0.0000000000000000e+00  1.1431846917507926e+00 -2.0235906481356242e-03 0.0000000000000000e+00  1.7761184159289731e+00 2.1287283636591284e-02 0.0000000000000000e+00  -1.4988154320015013e-02 -6.3092774069516133e-01 0.0000000000000000e+00  8.5831592067145923e-01 1.2928615534092556e-02 0.0000000000000000e+00  8.9937727768113318e-01 -1.0604466232771602e-03 0.0000000000000000e+00  1.0096252343572572e+00 -1.3204130644359365e-03 0.0000000000000000e+00  8.0349311266128132e-01 -4.9478758664119856e-03 0.0000000000000000e+00  8.4254922116052988e-01 -2.6892076068546988e-01 0.0000000000000000e+00  1.9724084019551591e+00 -2.5162860034177066e-02 0.0000000000000000e+00  3.2167148416827490e-01 -3.7066460090121228e-01 0.0000000000000000e+00  1.0899676852744469e+00 8.7345619481573426e-03 0.0000000000000000e+00  1.0602386807469946e+00 -3.6278674035825857e-03 0.0000000000000000e+00  1.2766998310640676e+00 4.6567304479272165e-01 0.0000000000000000e+00  1.4431600366057438e+00 -2.7975866268467631e-01 0.0000000000000000e+00  1.1287409244458328e+00 -7.9795777657733283e-03 0.0000000000000000e+00  1.3217145080507777e+00 3.1949192620151068e-01 0.0000000000000000e+00  7.6492796703998367e-01 -1.0449254445094715e-01 0.0000000000000000e+00  -2.7851953660139817e-02 -4.9336096832840259e-01 0.0000000000000000e+00  1.2432532390296582e+00 -2.0312847422446159e-01 0.0000000000000000e+00  1.1712901754875817e+00 1.6458596955291124e-01 0.0000000000000000e+00  1.3265212011847765e+00 -4.7022766751911978e-02 0.0000000000000000e+00  1.0140828049216715e+00 -2.8001787689320703e-03 0.0000000000000000e+00  -8.2311941040041456e-02 -1.9396249327968750e-02 0.0000000000000000e+00  1.0507588245468020e+00 -4.5959644746645196e-03 0.0000000000000000e+00  1.0559642135562453e+00 6.9456395574713100e-04 0.0000000000000000e+00  6.5625009350902230e-01 0.0000000000000000e+00 0.0000000000000000e+00  8.6045102598871037e-01 -1.7251615860517565e-02 0.0000000000000000e+00  9.8623898019983125e-01 -8.9202804620257658e-03 0.0000000000000000e+00  5.7400501715764041e-01 2.6470382820320451e-02 0.0000000000000000e+00  1.0323411654469059e+00 1.1882122691794154e-03 0.0000000000000000e+00  1.0817703562918277e+00 -6.4455074546249590e-05 0.0000000000000000e+00  1.0502455538569071e+00 -1.5609401095663206e-01 0.0000000000000000e+00  1.1225401259917129e+00 -5.8792538229704221e-04 0.0000000000000000e+00  1.3052324973881477e+00 1.4901002741250398e+00 0.0000000000000000e+00  1.1313916335296559e+00 -1.7645548320621097e-03 0.0000000000000000e+00  9.1037930849894366e-01 1.2834577242471088e+00 0.0000000000000000e+00  5.1262352959541202e-01 2.5552728349518633e-01 0.0000000000000000e+00  1.0317474447368347e+00 -1.4120563785650903e-04 0.0000000000000000e+00  1.6719932707809506e+00 -7.9731137518620002e-02 0.0000000000000000e+00  2.2114364153511525e+00 1.0507236150939430e+00 0.0000000000000000e+00  1.5649512879255600e+00 3.4005765447788106e-01 0.0000000000000000e+00  3.7529195299766621e-01 1.7214206625653986e-01 0.0000000000000000e+00  5.3933217144391021e-01 -8.8189271069974784e-01 0.0000000000000000e+00  1.0528151478070891e+00 7.8721120359747808e-04 0.0000000000000000e+00  3.2717921894500429e-01 3.6179692791704349e-01 0.0000000000000000e+00  1.9632457601502029e+00 -6.4391385791068456e-01 0.0000000000000000e+00  5.9184390089838457e-01 5.2224929184423530e-01 0.0000000000000000e+00  1.1232350164997518e+00 -2.0797944828658297e-02 0.0000000000000000e+00  1.4518223838813262e+00 -2.1603216691861261e-02 0.0000000000000000e+00  1.1396173060251173e+00 1.0938345614525025e-05 0.0000000000000000e+00  1.1434832115343025e+00 -2.1981904831160576e-03 0.0000000000000000e+00  6.3359144166760673e-01 3.6353494252082230e-01 0.0000000000000000e+00  1.0527489514391517e+00 5.7824879563286233e-03 0.0000000000000000e+00  1.2577280918908877e+00 -1.3000415779052277e-01 0.0000000000000000e+00  1.6478889908881751e+00 8.6169740998502964e-01 0.0000000000000000e+00  1.1438658334136087e+00 -3.6132882124400114e-04 0.0000000000000000e+00  1.1875174030037177e+00 -4.2285263771755982e-02 0.0000000000000000e+00  1.1453802492580920e+00 -1.1873716266775163e-03 0.0000000000000000e+00  1.0189900391552598e+00 1.3642366851715694e-03 0.0000000000000000e+00  1.1459160361611758e+00 -5.2634997487629202e-03 0.0000000000000000e+00  1.9774408140788484e+00 -5.9778320133430596e-01 0.0000000000000000e+00  1.4842688490086555e+00 7.6545898537369025e-02 0.0000000000000000e+00  1.0110856288489072e+00 1.5807331180105809e-03 0.0000000000000000e+00  8.0065307808712405e-01 -3.6838876462718349e-02 0.0000000000000000e+00  4.9773924369742489e-01 -1.2049798434944939e-01 0.0000000000000000e+00  1.1835348334358395e+00 -1.2346239815872583e-01 0.0000000000000000e+00  2.1188855571575211e+00 -2.8998079421713463e-01 0.0000000000000000e+00  5.6910527559400204e-01 -1.2871592842723484e-01 0.0000000000000000e+00  7.4058429316460417e-01 2.4619999282279932e-02 0.0000000000000000e+00  1.1569774323055710e+00 -1.7260498977652864e-02 0.0000000000000000e+00  1.0122337061215287e+00 7.8569976809691675e-02 0.0000000000000000e+00  1.0103030403756110e+00 -2.1773853703920446e-04 0.0000000000000000e+00  8.5120514366576461e-01 9.6215489901408408e-02 0.0000000000000000e+00  6.1131476223530823e-01 8.1449654163088428e-02 0.0000000000000000e+00  1.0287362240814624e-01 6.2746759029027495e-03 0.0000000000000000e+00  4.6582955627658135e-01 1.7116690512918001e-01 0.0000000000000000e+00  9.1816192317644940e-01 -2.6029947684706605e-02 0.0000000000000000e+00  1.1835292415677592e+00 -3.3560230773858496e-01 0.0000000000000000e+00  1.0120108874024960e+00 -7.7755208066133709e-03 0.0000000000000000e+00  1.0987115100237481e+00 1.0336312112296771e-02 0.0000000000000000e+00  1.1318356902960565e+00 -9.08631622276