<?xml version="1.0"?>
<VTKFile type="UnstructuredGrid"  version="0.1"  >
<UnstructuredGrid>
<Piece  NumberOfPoints="4269" NumberOfCells="8234">
<Points>
<DataArray  type="Float64"  NumberOfComponents="3"  format="ascii">0 1 0  0 0 0  7.5 0 0  7.5 1 0  1.197537668119028 0.5812868930080463 0  1.2 0.55 0  1.197537668119028 0.5187131069919538 0  1.190211303259031 0.4881966011250105 0  1.178201304837674 0.4592019000520907 0  1.161803398874989 0.4324429495415054 0  1.141421356237309 0.4085786437626905 0  1.117557050458495 0.3881966011250105 0  1.090798099947909 0.3717986951623264 0  1.06180339887499 0.3597886967409693 0  1.031286893008046 0.3524623318809725 0  1 0.35 0  0.9687131069919538 0.3524623318809725 0  0.9381966011250105 0.3597886967409694 0  0.9092019000520906 0.3717986951623264 0  0.8824429495415054 0.3881966011250105 0  0.8585786437626904 0.4085786437626905 0  0.8381966011250105 0.4324429495415054 0  0.8217986951623264 0.4592019000520907 0  0.8097886967409692 0.4881966011250107 0  0.8024623318809725 0.5187131069919539 0  0.8 0.55 0  0.8024623318809725 0.5812868930080463 0  0.8097886967409693 0.6118033988749896 0  0.8217986951623264 0.6407980999479095 0  0.8381966011250105 0.6675570504584947 0  0.8585786437626906 0.6914213562373096 0  0.8824429495415054 0.7118033988749896 0  0.9092019000520907 0.7282013048376736 0  0.9381966011250106 0.7402113032590307 0  0.9687131069919539 0.7475376681190276 0  1 0.75 0  1.031286893008046 0.7475376681190276 0  1.06180339887499 0.7402113032590307 0  1.090798099947909 0.7282013048376736 0  1.117557050458495 0.7118033988749896 0  1.141421356237309 0.6914213562373095 0  1.161803398874989 0.6675570504584947 0  1.178201304837674 0.6407980999479094 0  1.190211303259031 0.6118033988749896 0  3.75 0 0  3.75 1 0  1.875 0 0  1.875 1 0  0.9375 0 0  0.9375 1 0  1.40625 1 0  5.625 1 0  5.625 0 0  2.8125 1 0  2.8125 0 0  4.6875 0 0  4.6875 1 0  6.5625 0 0  6.5625 1 0  5.15625 0.5 0  4.21875 0.5 0  2.34375 0.5 0  3.28125 0.5 0  6.09375 0.5 0  7.5 0.5 0  6.897916666666666 0.5 0  1.842708333333333 0.5 0  0 0.5 0  0.46875 0 0  5.625 0.5302734375 0  7.03125 0 0  6.09375 1 0  2.8125 0.4697265625 0  3.28125 0 0  2.34375 1 0  2.34375 0 0  3.75 0.4697265625 0  4.21875 0 0  4.21875 1 0  4.6875 0.5302734375 0  3.28125 1 0  5.15625 0 0  6.09375 0 0  5.15625 1 0  0.46875 1 0  1.40625 0 0  7.03125 1 0  0.3954638734376499 0.5975780249976004 0  6.495833333333334 0.4072265624999998 0  5.859375 0.25 0  4.905729166666666 0.26513671875 0  4.453125 0.25 0  3.531770833333333 0.73486328125 0  3.968229166666667 0.73486328125 0  2.594270833333333 0.73486328125 0  3.030729166666667 0.73486328125 0  6.328125 0.75 0  7.198958333333334 0.3125000000000002 0  7.198958333333334 0.6874999999999998 0  5.390625 0.25 0  0 0.25 0  2.109375 0.75 0  2.109375 0.25 0  1.51921323205749 0.3418883887525936 0  1.522346610178253 0.6811769608297746 0  5.375456746419271 0.75 0  4.921875 0.76513671875 0  4.437956746419271 0.75 0  3.984375 0.23486328125 0  3.500456746419271 0.25 0  2.578125 0.23486328125 0  3.046875 0.23486328125 0  5.874543253580729 0.75 0  6.642123189445656 0.6909095493086836 0  6.746354166666666 0.2391688368055553 0  0.3197109619185111 0.2850049285972083 0  6.328125 0 0  0.6313375889370429 0.2351325552547357 0  0 0.75 0  6.252283381534729 0.2693808819694041 0  0.234375 1 0  6.948437500000001 0.7543055555555555 0  0.5934018769555939 0.7694151657947577 0  1.858854166666667 0.75 0  1.858854166666667 0.25 0  1.640625 0 0  2.093229166666667 0.5 0  7.5 0.25 0  3.282227579752604 0.75 0  7.5 0.75 0  1.171875 0 0  1.303539853147731 0.2235426933121065 0  5.148177083333333 0.2575683593749998 0  2.351822916666667 0.742431640625 0  1.640625 1 0  4.202380413457425 0.7645435094236485 0  3.047822985053062 0.4701848030090332 0  2.577177014946938 0.4701848030090332 0  4.672792740482199 0.76513671875 0  4.922822985053062 0.5298151969909668 0  5.390593497949761 0.5156244924311331 0  5.610292740482199 0.76513671875 0  3.516602579752604 0.5 0  4.45496853898097 0.4865915990446593 0  5.85753146101903 0.4865915990446593 0  3.749511210123698 0.23486328125 0  3.983397420247396 0.4999999999999999 0  2.343497975411212 0.2346270081980111 0  4.219002024588788 0.2346270081980111 0  0.703125 0 0  2.8125 0.2343755075688669 0  3.046875 0 0  2.578125 0 0  3.515625 0 0  3.984375 0 0  4.453125 1 0  5.390625 1 0  2.109375 0 0  2.109375 1 0  5.625 0.2921402030705575 0  5.390625 0 0  7.265625 0 0  6.796875 0 0  6.328125 1 0  3.046875 1 0  2.578125 1 0  3.984375 1 0  3.515625 1 0  4.453125 0 0  4.921875 0 0  5.859375 0 0  0.703125 1 0  1.171875 1 0  7.265625 1 0  4.921875 1 0  5.859375 1 0  0.234375 0 0  6.796875 1 0  6.980310975276531 0.2285890127127066 0  5.149170481934885 0.772689292163473 0  3.274170481934884 0.2273107078365268 0  6.101334126790364 0.7722468376159667 0  4.678005340872584 0.3000799877067239 0  2.8125 0.6921051326382495 0  3.75 0.6921051326382495 0  0.3515624999999999 0.8134571721668546 0  0.4990405774417521 0.4070099317153735 0  0.1789273931360182 0.625 0  6.31239060814315 0.5298877111157968 0  6.456979773992304 0.1917956348713352 0  6.699870808919271 0.4406293402777773 0  1.337539480965883 0.7944303676599538 0  6.058675797563041 0.2019812164653516 0  0.8203125 0.1643029084422534 0  0.1480856513011711 0.375 0  1.090769294689562 0.1719186776982972 0  7.291088163206459 0.5 0  7.094502414936563 0.5197902199074071 0  0.6046212059042245 0.5730066483871106 0  1.707231580809486 0.6342709161352207 0  1.685961352504593 0.8193269193390785 0  1.374721602852827 0.4600373025865813 0  6.486415510043844 0.5916440776477192 0  1.5234375 0.1508863828685116 0  1.707925830421689 0.3657739208189008 0  0.1674513225045584 0.8278776664019765 0  7.138268756771176 0.1438183366439137 0  7.1484375 0.8616388888888887 0  7.328562530764119 0.819498462930605 0  4.101073710123698 0.3678637200736647 0  1.693878467219965 0.1911955120941053 0  1.577566745468488 0.5110082404081502 0  6.6796875 0.8653871806883484 0  6.498039504430512 0.825568433346395 0  0.7562556668576472 0.8333197949571929 0  4.101045914668806 0.6255195807449272 0  5.030745188395182 0.382829047309028 0  2.476364945868651 0.6095868094762166 0  2.729359843907322 0.8460525663191247 0  2.9296875 0.8740763101564099 0  3.163518307559356 0.6254622797994247 0  3.666859843907322 0.8460525663191247 0  3.8671875 0.8740763101564099 0  4.8046875 0.12592368984359 0  3.14936031382311 0.8606990583876851 0  2.4609375 0.8747622921397776 0  5.023140791101972 0.1392266772452574 0  0 0.125 0  0.1759922923594607 0.1727589856739889 0  4.5703125 0.125 0  7.327755777818006 0.1766156770456191 0  5.5078125 0.125 0  5.719712725029036 0.1460701015352787 0  4.327848962028002 0.3674169956512513 0  5.982681121544351 0.3692637923021713 0  3.398926289876302 0.6245417594909667 0  5.281756792511996 0.3827993367299961 0  2.226822645963271 0.6252438868405666 0  2.234390064317166 0.8676616584526566 0  5.2734375 0.125 0  1.96796875 0.382568359375 0  2.234651037971999 0.3674169956512511 0  1.984114583333333 0.132568359375 0  1.9921875 0.875 0  1.984114583333333 0.632568359375 0  5.748733794462357 0.8678269127183313 0  3.3984375 0.875456329184688 0  1.512925924995415 0.8582958012121853 0  1.359299372802969 0.6275861864990343 0  4.810521420483513 0.4041767793635395 0  0.2996213306116602 0.455339710363317 0  5.999933717403708 0.6388425470751088 0  5.250033449003657 0.6388713364551682 0  3.631676045992918 0.3525406652400928 0  4.3359375 0.8816499670325881 0  4.343577437052484 0.6116511299909198 0  3.375033449003656 0.3611286635448316 0  5.763152151652243 0.6249404690537395 0  4.549347848347757 0.6249404690537396 0  5.5004588702411 0.6403667365776566 0  5.976118394847484 0.8816230218343086 0  5.054722486865804 0.6338007028640954 0  3.164542163493752 0.3520519332736524 0  2.445407482032355 0.3672168403687257 0  4.8046875 0.882568359375 0  4.1015625 0.117431640625 0  2.4609375 0.117431640625 0  2.695556894938151 0.3520510350344335 0  2.929443105061849 0.3520510350344335 0  3.881979231817319 0.3670559016511187 0  3.8671875 0.117431640625 0  4.805389247695744 0.6470047893641744 0  3.399370721942191 0.1184066543556767 0  5.274370721942192 0.881593345644323 0  3.618253274934649 0.1316869186284249 0  2.6953125 0.1171877537844335 0  2.9296875 0.1171877537844335 0  2.21873344389451 0.125 0  4.3359375 0.1171877625080073 0  0.6659898565672709 0.3986593551313873 0  7.363359022954956 0.3481046411219251 0  7.363359022954956 0.6518953588780749 0  5.487719392831826 0.3828237631077121 0  2.695054578344725 0.5809158475691247 0  2.944553877887707 0.5964065668438148 0  0.3515625 0.1201898858097106 0  5.5078125 1 0  4.5703125 1 0  5.031746201297604 0.882568359375 0  3.1640625 0 0  6.2109375 1 0  6.186845385763124 0.6336356480571081 0  4.1015625 1 0  6.810399074069772 0.6495574751396682 0  0.4740615253480797 0.2509287743856873 0  7.052064303830151 0.3684417917792242 0  6.195177069665382 0.1216488332168849 0  5.72300154718324 0.4112068202852788 0  3.879157465495092 0.6111892850691246 0  3.645760045247695 0.5809158475691247 0  6.868257400485771 0.3427840810237202 0  6.612030892260864 0.1521752713064389 0  6.615666885941117 0.3151079644097221 0  4.04296875 0.8633718902669071 0  1.183031453639096 0.8486801864185936 0  6.9140625 0 0  6.859079526500421 0.1398292786950638 0  6.808232443325651 0.7957411753922057 0  6.9140625 1 0  4.544955211100143 0.3675874343205077 0  1.0546875 1 0  6.122060236165557 0.3316791557072867 0  0.5859375 0 0  5.9765625 0 0  5.44921875 0.870984788733638 0  4.51171875 0.870984788733638 0  0.7608354256382215 0.2931261274224557 0  6.386875332239937 0.3156583003094978 0  6.985654756850997 0.6147408423643147 0  6.223797257919172 0.8535621912121121 0  5.936822413218736 0.1338376546337823 0  6.23933008800134 0.4095573603773768 0  0.5414022462152697 0.1305482677949959 0  6.331360438104348 0.1370086318183389 0  0.956404929269873 0.1374266563647954 0  1.2890625 1 0  0.691305981127761 0.6764829884281737 0  3.531251607241209 0.8678916320952239 0  2.59787442813022 
[...]
<PointData  Vectors="f_71627"> 
<DataArray  type="Float64"  Name="f_71627"  NumberOfComponents="3" format="ascii">0.0000000000000000e+00 0.0000000000000000e+00 0.0000000000000000e+00  0.0000000000000000e+00 0.0000000000000000e+00 0.0000000000000000e+00  0.0000000000000000e+00 0.0000000000000000e+00 0.0000000000000000e+00  0.0000000000000000e+00 0.0000000000000000e+00 0.0000000000000000e+00  0.0000000000000000e+00 0.0000000000000000e+00 0.0000000000000000e+00  0.0000000000000000e+00 0.0000000000000000e+00 0.0000000000000000e+00  0.0000000000000000e+00 0.0000000000000000e+00 0.0000000000000000e+00  0.0000000000000000e+00 0.0000000000000000e+00 0.0000000000000000e+00  0.0000000000000000e+00 0.0000000000000000e+00 0.0000000000000000e+00  0.0000000000000000e+00 0.0000000000000000e+00 0.0000000000000000e+00  0.0000000000000000e+00 0.0000000000000000e+00 0.0000000000000000e+00  0.0000000000000000e+00 0.0000000000000000e+00 0.0000000000000000e+00  0.0000000000000000e+00 0.0000000000000000e+00 0.0000000000000000e+00  0.0000000000000000e+00 0.0000000000000000e+00 0.0000000000000000e+00  0.0000000000000000e+00 0.0000000000000000e+00 0.0000000000000000e+00  0.0000000000000000e+00 0.0000000000000000e+00 0.0000000000000000e+00  0.0000000000000000e+00 0.0000000000000000e+00 0.0000000000000000e+00  0.0000000000000000e+00 0.0000000000000000e+00 0.0000000000000000e+00  0.0000000000000000e+00 0.0000000000000000e+00 0.0000000000000000e+00  0.0000000000000000e+00 0.0000000000000000e+00 0.0000000000000000e+00  0.0000000000000000e+00 0.0000000000000000e+00 0.0000000000000000e+00  0.0000000000000000e+00 0.0000000000000000e+00 0.0000000000000000e+00  0.0000000000000000e+00 0.0000000000000000e+00 0.0000000000000000e+00  0.0000000000000000e+00 0.0000000000000000e+00 0.0000000000000000e+00  0.0000000000000000e+00 0.0000000000000000e+00 0.0000000000000000e+00  0.0000000000000000e+00 0.0000000000000000e+00 0.0000000000000000e+00  0.0000000000000000e+00 0.0000000000000000e+00 0.0000000000000000e+00  0.0000000000000000e+00 0.0000000000000000e+00 0.0000000000000000e+00  0.0000000000000000e+00 0.0000000000000000e+00 0.0000000000000000e+00  0.0000000000000000e+00 0.0000000000000000e+00 0.0000000000000000e+00  0.0000000000000000e+00 0.0000000000000000e+00 0.0000000000000000e+00  0.0000000000000000e+00 0.0000000000000000e+00 0.0000000000000000e+00  0.0000000000000000e+00 0.0000000000000000e+00 0.0000000000000000e+00  0.0000000000000000e+00 0.0000000000000000e+00 0.0000000000000000e+00  0.0000000000000000e+00 0.0000000000000000e+00 0.0000000000000000e+00  0.0000000000000000e+00 0.0000000000000000e+00 0.0000000000000000e+00  0.0000000000000000e+00 0.0000000000000000e+00 0.0000000000000000e+00  0.0000000000000000e+00 0.0000000000000000e+00 0.0000000000000000e+00  0.0000000000000000e+00 0.0000000000000000e+00 0.0000000000000000e+00  0.0000000000000000e+00 0.0000000000000000e+00 0.0000000000000000e+00  0.0000000000000000e+00 0.0000000000000000e+00 0.0000000000000000e+00  0.0000000000000000e+00 0.0000000000000000e+00 0.0000000000000000e+00  0.0000000000000000e+00 0.0000000000000000e+00 0.0000000000000000e+00  0.0000000000000000e+00 0.0000000000000000e+00 0.0000000000000000e+00  0.0000000000000000e+00 0.0000000000000000e+00 0.0000000000000000e+00  0.0000000000000000e+00 0.0000000000000000e+00 0.0000000000000000e+00  0.0000000000000000e+00 0.0000000000000000e+00 0.0000000000000000e+00  0.0000000000000000e+00 0.0000000000000000e+00 0.0000000000000000e+00  0.0000000000000000e+00 0.0000000000000000e+00 0.0000000000000000e+00  0.0000000000000000e+00 0.0000000000000000e+00 0.0000000000000000e+00  0.0000000000000000e+00 0.0000000000000000e+00 0.0000000000000000e+00  0.0000000000000000e+00 0.0000000000000000e+00 0.0000000000000000e+00  0.0000000000000000e+00 0.0000000000000000e+00 0.0000000000000000e+00  0.0000000000000000e+00 0.0000000000000000e+00 0.0000000000000000e+00  0.0000000000000000e+00 0.0000000000000000e+00 0.0000000000000000e+00  0.0000000000000000e+00 0.0000000000000000e+00 0.0000000000000000e+00  0.0000000000000000e+00 0.0000000000000000e+00 0.0000000000000000e+00  0.0000000000000000e+00 0.0000000000000000e+00 0.0000000000000000e+00  0.0000000000000000e+00 0.0000000000000000e+00 0.0000000000000000e+00  1.4417438653719523e+00 -1.0869605880789786e+00 0.0000000000000000e+00  1.9384538258315058e+00 2.0467273297171923e-01 0.0000000000000000e+00  1.5046456087993405e+00 6.5788444318237782e-01 0.0000000000000000e+00  1.6552807654184549e+00 1.0303411179926003e+00 0.0000000000000000e+00  1.2547319053705817e+00 1.9185445490383479e-01 0.0000000000000000e+00  1.5000002319145160e+00 0.0000000000000000e+00 0.0000000000000000e+00  1.1963371415046380e+00 2.2627464435098393e-01 0.0000000000000000e+00  1.2331870509129388e+00 -1.1507638841275771e+00 0.0000000000000000e+00  1.5000002319145160e+00 0.0000000000000000e+00 0.0000000000000000e+00  0.0000000000000000e+00 0.0000000000000000e+00 0.0000000000000000e+00  1.3147334474383376e+00 8.4399070804913856e-01 0.0000000000000000e+00  0.0000000000000000e+00 0.0000000000000000e+00 0.0000000000000000e+00  0.0000000000000000e+00 0.0000000000000000e+00 0.0000000000000000e+00  2.0124152908510720e+00 -9.8877710885170156e-01 0.0000000000000000e+00  0.0000000000000000e+00 0.0000000000000000e+00 0.0000000000000000e+00  0.0000000000000000e+00 0.0000000000000000e+00 0.0000000000000000e+00  0.0000000000000000e+00 0.0000000000000000e+00 0.0000000000000000e+00  1.4363319185794199e+00 -7.8435489874910336e-01 0.0000000000000000e+00  0.0000000000000000e+00 0.0000000000000000e+00 0.0000000000000000e+00  0.0000000000000000e+00 0.0000000000000000e+00 0.0000000000000000e+00  1.6072122645752407e+00 5.0566846827752088e-01 0.0000000000000000e+00  0.0000000000000000e+00 0.0000000000000000e+00 0.0000000000000000e+00  0.0000000000000000e+00 0.0000000000000000e+00 0.0000000000000000e+00  0.0000000000000000e+00 0.0000000000000000e+00 0.0000000000000000e+00  0.0000000000000000e+00 0.0000000000000000e+00 0.0000000000000000e+00  0.0000000000000000e+00 0.0000000000000000e+00 0.0000000000000000e+00  0.0000000000000000e+00 0.0000000000000000e+00 0.0000000000000000e+00  0.0000000000000000e+00 0.0000000000000000e+00 0.0000000000000000e+00  1.3665195840378186e+00 1.3620692030818780e-02 0.0000000000000000e+00  1.5386825064534662e+00 -4.9987142464989148e-01 0.0000000000000000e+00  1.1040273438732247e+00 2.1418437581617300e-01 0.0000000000000000e+00  1.0100120946140332e+00 -4.3041198278002962e-01 0.0000000000000000e+00  1.3965567141049271e+00 5.0745893263797048e-01 0.0000000000000000e+00  9.1607575873689862e-01 5.4053482533218089e-01 0.0000000000000000e+00  5.9911316458134400e-01 -1.0289081211958211e+00 0.0000000000000000e+00  1.2876172315882879e+00 -4.0049344258885433e-01 0.0000000000000000e+00  9.5397686323029571e-02 -2.1755842484311094e-01 0.0000000000000000e+00  1.4559286001363945e+00 -1.9796112670235172e-01 0.0000000000000000e+00  1.0136691213166713e+00 3.7971535484425362e-02 0.0000000000000000e+00  1.0390264123058670e+00 3.2612351355804599e-02 0.0000000000000000e+00  1.8440617530131616e+00 -2.7029696036882245e-01 0.0000000000000000e+00  1.1250001739358872e+00 0.0000000000000000e+00 0.0000000000000000e+00  -1.2487585386026132e-02 7.3828102996882083e-01 0.0000000000000000e+00  2.0370093938638614e+00 9.4002588262918119e-01 0.0000000000000000e+00  9.9211841090682401e-02 5.5851029612852376e-01 0.0000000000000000e+00  2.1076875578993337e+00 -1.1116645080188590e+00 0.0000000000000000e+00  3.7665639840292509e-01 -1.6980761029930483e-01 0.0000000000000000e+00  1.2751159609814606e+00 -2.6710334695730453e-01 0.0000000000000000e+00  5.3512856500603156e-01 5.3227449421577211e-01 0.0000000000000000e+00  1.4674810771304430e+00 -5.4233092824035978e-01 0.0000000000000000e+00  8.6819358957592785e-01 9.9996416645189767e-02 0.0000000000000000e+00  1.1390382618404828e+00 5.0625960761662780e-01 0.0000000000000000e+00  1.4904269064053539e+00 -4.3193413638523370e-01 0.0000000000000000e+00  1.1185430899315834e+00 3.8509962526667268e-01 0.0000000000000000e+00  1.0589439239360061e+00 -3.8663696580945137e-02 0.0000000000000000e+00  1.2781800403379628e+00 -1.0855135015083105e-01 0.0000000000000000e+00  1.2246414674055417e+00 -5.7666450840749069e-02 0.0000000000000000e+00  0.0000000000000000e+00 0.0000000000000000e+00 0.0000000000000000e+00  1.2048474507755289e+00 -2.7037202733784610e-01 0.0000000000000000e+00  1.1250001739358872e+00 0.0000000000000000e+00 0.0000000000000000e+00  7.9984621617260321e-01 1.7369492182326529e-01 0.0000000000000000e+00  0.0000000000000000e+00 0.0000000000000000e+00 0.0000000000000000e+00  1.1700962590533399e+00 5.8108646265493266e-02 0.0000000000000000e+00  1.0829099106984359e+00 2.4839051248688707e-01 0.0000000000000000e+00  4.4980555073963557e-01 -3.2536507944997800e-01 0.0000000000000000e+00  1.9286131042759473e+00 -1.5331123612705910e-01 0.0000000000000000e+00  0.0000000000000000e+00 0.0000000000000000e+00 0.0000000000000000e+00  1.5385685767594077e+00 1.2020574110276392e+00 0.0000000000000000e+00  1.1250001739358872e+00 0.0000000000000000e+00 0.0000000000000000e+00  3.2061257947141053e-01 9.6407415380334116e-01 0.0000000000000000e+00  1.1250001739358872e+00 0.0000000000000000e+00 0.0000000000000000e+00  0.0000000000000000e+00 0.0000000000000000e+00 0.0000000000000000e+00  1.8718650340633478e+00 3.0778456734644871e-01 0.0000000000000000e+00  1.3600368096374835e+00 -6.9436432231008594e-01 0.0000000000000000e+00  1.0453551541715282e+00 3.4500662822251815e-01 0.0000000000000000e+00  0.0000000000000000e+00 0.0000000000000000e+00 0.0000000000000000e+00  2.3979838515394897e-01 9.8553976480787897e-02 0.0000000000000000e+00  2.3247014617501112e+00 -6.1707345688075588e-01 0.0000000000000000e+00  1.5294753338394986e+00 -1.6150668692274095e-01 0.0000000000000000e+00  1.0802313940946107e+00 3.5993555269062583e-01 0.0000000000000000e+00  1.5648446505195988e+00 -4.4773480784850345e-01 0.0000000000000000e+00  1.3639945267984050e+00 -4.0944759083060778e-01 0.0000000000000000e+00  2.1369976725712075e-01 6.6583024077953190e-01 0.0000000000000000e+00  1.6792155862142797e+00 9.1487670206441729e-01 0.0000000000000000e+00  1.7178014794219703e+00 9.2252016464457143e-01 0.0000000000000000e+00  1.2872191191696321e+00 7.1620623275281203e-01 0.0000000000000000e+00  6.8273424271175720e-01 -4.4524679019028007e-01 0.0000000000000000e+00  1.6267655216542249e+00 -1.4561728245648651e+00 0.0000000000000000e+00  8.6179417555058335e-01 2.0684862966588700e-02 0.0000000000000000e+00  1.7548986378790490e+00 1.6064581015419063e-01 0.0000000000000000e+00  0.0000000000000000e+00 0.0000000000000000e+00 0.0000000000000000e+00  1.5169503482836415e+00 -9.1371805510675841e-01 0.0000000000000000e+00  0.0000000000000000e+00 0.0000000000000000e+00 0.0000000000000000e+00  0.0000000000000000e+00 0.0000000000000000e+00 0.0000000000000000e+00  0.0000000000000000e+00 0.0000000000000000e+00 0.0000000000000000e+00  0.0000000000000000e+00 0.0000000000000000e+00 0.0000000000000000e+00  0.0000000000000000e+00 0.0000000000000000e+00 0.0000000000000000e+00  0.0000000000000000e+00 0.0000000000000000e+00 0.0000000000000000e+00  0.0000000000000000e+00 0.0000000000000000e+00 0.0000000000000000e+00  0.0000000000000000e+00 0.0000000000000000e+00 0.0000000000000000e+00  1.7814987252574686e+00 7.0542834550678257e-01 0.0000000000000000e+00  0.0000000000000000e+00 0.0000000000000000e+00 0.0000000000000000e+00  0.0000000000000000e+00 0.0000000000000000e+00 0.0000000000000000e+00  0.0000000000000000e+00 0.0000000000000000e+00 0.0000000000000000e+00  0.0000000000000000e+00 0.0000000000000000e+00 0.0000000000000000e+00  0.0000000000000000e+00 0.0000000000000000e+00 0.0000000000000000e+00  0.0000000000000000e+00 0.0000000000000000e+00 0.0000000000000000e+00  0.0000000000000000e+00 0.0000000000000000e+00 0.0000000000000000e+00  0.0000000000000000e+00 0.0000000000000000e+00 0.0000000000000000e+00  0.0000000000000000e+00 0.0000000000000000e+00 0.0000000000000000e+00  0.0000000000000000e+00 0.0000000000000000e+00 0.0000000000000000e+00  0.0000000000000000e+00 0.0000000000000000e+00 0.0000000000000000e+00  0.0000000000000000e+00 0.0000000000000000e+00 0.0000000000000000e+00  0.0000000000000000e+00 0.0000000000000000e+00 0.0000000000000000e+00  0.0000000000000000e+00 0.0000000000000000e+00 0.0000000000000000e+00  0.0000000000000000e+00 0.0000000000000000e+00 0.0000000000000000e+00  0.0000000000000000e+00 0.0000000000000000e+00 0.0000000000000000e+00  0.0000000000000000e+00 0.0000000000000000e+00 0.0000000000000000e+00  0.0000000000000000e+00 0.0000000000000000e+00 0.0000000000000000e+00  1.3184677515214163e+00 8.9352131816414507e-02 0.0000000000000000e+00  6.4471391463696981e-01 -4.6422459967379487e-01 0.0000000000000000e+00  1.6240579348734121e+00 7.5620230946059264e-01 0.0000000000000000e+00  1.3373062909589848e+00 -3.9005894266279838e-02 0.0000000000000000e+00  1.1292685854957685e+00 4.2434077913465723e-01 0.0000000000000000e+00  1.1279392188297195e+00 -1.0336526586564554e+00 0.0000000000000000e+00  1.3982980700736334e+00 -7.6573547556360932e-01 0.0000000000000000e+00  9.1904736521886177e-01 4.6613841454219374e-02 0.0000000000000000e+00  1.3433006861208976e+00 -1.1963313362198387e-01 0.0000000000000000e+00  1.3934891399465814e+00 -4.8841423967333287e-03 0.0000000000000000e+00  1.6173374545504953e+00 6.6033812510186236e-04 0.0000000000000000e+00  5.0724001397437646e-01 -2.7665169242625132e-01 0.0000000000000000e+00  1.3914804110734205e+00 -4.6258614655404690e-01 0.0000000000000000e+00  2.3155119244794808e+00 -3.6450689211483878e-01 0.0000000000000000e+00  9.0704844550060859e-01 1.0818900808106170e-01 0.0000000000000000e+00  1.3684581135656417e+00 -3.1543896296448604e-01 0.0000000000000000e+00  1.4035791094870786e+00 -2.3498603450017416e-02 0.0000000000000000e+00  1.8499525764851368e+00 -5.2827281057968599e-02 0.0000000000000000e+00  1.3900364179508045e+00 1.4750653827046873e-02 0.0000000000000000e+00  1.3759089879545530e+00 7.8385914894287048e-02 0.0000000000000000e+00  1.1540609112651721e+00 7.4723183927606462e-02 0.0000000000000000e+00  1.4972548585249581e+00 -1.3337705073570918e+00 0.0000000000000000e+00  1.0515068771899432e+00 -5.2757876036486906e-01 0.0000000000000000e+00  -1.0477733708855530e+00 1.2580370685346021e+00 0.0000000000000000e+00  1.5481490861969196e+00 -3.1898192621883814e-01 0.0000000000000000e+00  1.4166829113482990e+00 7.4328460028581442e-03 0.0000000000000000e+00  6.8454743936579332e-01 -9.9220867880564678e-01 0.0000000000000000e+00  8.5509451310535622e-01 5.3258517206939866e-03 0.0000000000000000e+00  8.6378745788915379e-01 2.0069035082273250e-02 0.0000000000000000e+00  9.3198384895588493e-01 5.9601597500259541e-03 0.0000000000000000e+00  8.3213837390847334e-01 -8.4956496142712789e-03 0.0000000000000000e+00  1.9068492510325652e+00 -3.8003038413352225e-01 0.0000000000000000e+00  1.7105337185303622e+00 -2.6994030682148418e-01 0.0000000000000000e+00  7.2629201068148797e-01 -5.7513459996689287e-01 0.0000000000000000e+00  8.7851448366397789e-01 1.8416646333387153e-02 0.0000000000000000e+00  9.3828787813156156e-01 -3.5931928494111164e-02 0.0000000000000000e+00  1.2325615906685172e+00 4.4456988636184303e-01 0.0000000000000000e+00  7.6241556038430203e-01 -4.8108023919743698e-01 0.0000000000000000e+00  1.3953895724524616e+00 -7.8032489302413521e-01 0.0000000000000000e+00  1.3852920502994182e+00 5.9682829107576156e-02 0.0000000000000000e+00  4.0353393554341427e-01 -4.0945533980932403e-01 0.0000000000000000e+00  -1.6370024609214251e-01 -2.2785232893192500e-01 0.0000000000000000e+00  9.1394580751673593e-01 5.4719595986363145e-01 0.0000000000000000e+00  1.4911500411286773e+00 -2.0376122281094969e-01 0.0000000000000000e+00  5.5786663485717403e-01 -3.0085697085266694e-01 0.0000000000000000e+00  2.7348551845995922e-01 3.0783028702136620e-02 0.0000000000000000e+00  -2.0559814570609888e-01 2.0891584313985834e-01 0.0000000000000000e+00  8.8947824679314946e-01 -1.0676839710884987e-02 0.0000000000000000e+00  6.3042126089416584e-01 -3.7079150583931753e-01 0.0000000000000000e+00  6.5625010146260099e-01 0.0000000000000000e+00 0.0000000000000000e+00  8.6310982901952182e-01 -2.3953793903739043e-02 0.0000000000000000e+00  6.1981294444077684e-01 1.9515890650612913e-01 0.0000000000000000e+00  7.1333803407587248e-01 3.0108657353103318e-02 0.0000000000000000e+00  1.7148732065930130e+00 2.1687442418020253e-01 0.0000000000000000e+00  1.0724963385031678e+00 1.2535907118715875e-01 0.0000000000000000e+00  1.9175786356992837e+00 6.2086274244760387e-01 0.0000000000000000e+00  1.1001721505591027e+00 2.0649268572999663e-01 0.0000000000000000e+00  1.0298666629259818e+00 1.3730514433433454e+00 0.0000000000000000e+00  1.7972227159554759e+00 -8.0343392570736027e-01 0.0000000000000000e+00  9.8676616024982278e-01 1.2246577496687578e+00 0.0000000000000000e+00  6.8327939126628101e-01 2.3149011002562642e-01 0.0000000000000000e+00  1.1794521075318496e+00 -3.0631680577965881e-01 0.0000000000000000e+00  1.8672810768952877e+00 -2.5771071671258472e-01 0.0000000000000000e+00  1.9221562104305161e+00 1.0101980824742067e+00 0.0000000000000000e+00  1.5762172845363820e+00 3.1032778206033812e-01 0.0000000000000000e+00  8.9155190050474273e-02 8.6921023739833667e-02 0.0000000000000000e+00  5.6680488726526534e-01 -1.8088654830770901e-01 0.0000000000000000e+00  6.7421258270187079e-01 3.3241537992205111e-01 0.0000000000000000e+00  7.6309564224634197e-01 5.8694166804022774e-01 0.0000000000000000e+00  1.6542589203040874e+00 -6.7401467112154079e-01 0.0000000000000000e+00  7.2025610810367424e-01 7.1186457909490275e-01 0.0000000000000000e+00  1.4674735421464766e+00 1.9760399101034415e-01 0.0000000000000000e+00  1.4538539883695960e+00 -3.8841572648859297e-02 0.0000000000000000e+00  1.2002485951974466e+00 8.8700530953897294e-02 0.0000000000000000e+00  7.9412218865105366e-01 -8.6021416327349831e-01 0.0000000000000000e+00  9.7707258755172066e-01 -3.5599105355455997e-02 0.0000000000000000e+00  1.7639111319967152e-02 2.7109169553339874e-01 0.0000000000000000e+00  1.2686473597165222e+00 8.8432242406062467e-01 0.0000000000000000e+00  1.6828398273831195e+00 1.2850269591180707e+00 0.0000000000000000e+00  9.3190100364243877e-01 1.1426468829695979e+00 0.0000000000000000e+00  1.3805417979943899e+00 8.6116774539153462e-01 0.0000000000000000e+00  8.2346784209298063e-01 3.3865136656788658e-01 0.0000000000000000e+00  1.2353994210106121e+00 -4.2202399386500167e-02 0.0000000000000000e+00  1.3198533981351193e+00 -7.2763231939161743e-01 0.0000000000000000e+00  1.8714526989314246e+00 7.2008315035711534e-02 0.0000000000000000e+00  1.2928992226613851e+00 1.4289325904603831e-01 0.0000000000000000e+00  1.0724444615556303e+00 -6.9048110642235469e-02 0.0000000000000000e+00  1.2419473357745461e+00 3.6275518864896050e-02 0.0000000000000000e+00  -7.3214938960786929e-02 3.1996408888835309e-01 0.0000000000000000e+00  1.9522836976473665e+00 -3.6534836467329057e-01 0.0000000000000000e+00  1.9411420607876333e+00 -9.1721085782448297e-01 0.0000000000000000e+00  1.2773185781444738e+00 -1.1080863063843343e+00 0.0000000000000000e+00  7.2855222806477260e-01 -1.4712956970969074e-01 0.0000000000000000e+00  1.6110772674329721e+00 2.4953477043997979e-01 0.0000000000000000e+00  7.1250103512814544e-01 2.6621288341562560e-01 0.0000000000000000e+00  2.5322036610379828e-01 -7.0175731185598417e-02 0.0000000000000000e+00  3.8834115773252159e-01 1.0095635970025510e-02 0.0000000000000000e+00  1.3877713017377272e-01 -7.8543426236455674e-02 0.0000000000000000e+00  6.7373241428599695e-01 -7.2740303583305210e-01 0.0000000000000000e+00  6.1519123252624153e-01 6.3728311895921014e-02 0.0000000000000000e+00  8.8909082173792564e-01 1.5254996979255217e-01 0.0000000000000000e+00  1.2050118061278021e+00 -3.6484415339574194e-01 0.0000000000000000e+00  1.0774534548467662e+00 1.9351984037056503e-02 0.0000000000000000e+00  1.1319938094975817e+00 1.9235018661972546e-02 0.0000000000000000e+00  1.8409196709537190e+00 -7.0276522073186798e-02 0.0000000000000