<?xml version="1.0"?>
<VTKFile type="UnstructuredGrid"  version="0.1"  >
<UnstructuredGrid>
<Piece  NumberOfPoints="4269" NumberOfCells="8234">
<Points>
<DataArray  type="Float64"  NumberOfComponents="3"  format="ascii">0 1 0  0 0 0  7.5 0 0  7.5 1 0  1.197537668119028 0.5812868930080463 0  1.2 0.55 0  1.197537668119028 0.5187131069919538 0  1.190211303259031 0.4881966011250105 0  1.178201304837674 0.4592019000520907 0  1.161803398874989 0.4324429495415054 0  1.141421356237309 0.4085786437626905 0  1.117557050458495 0.3881966011250105 0  1.090798099947909 0.3717986951623264 0  1.06180339887499 0.3597886967409693 0  1.031286893008046 0.3524623318809725 0  1 0.35 0  0.9687131069919538 0.3524623318809725 0  0.9381966011250105 0.3597886967409694 0  0.9092019000520906 0.3717986951623264 0  0.8824429495415054 0.3881966011250105 0  0.8585786437626904 0.4085786437626905 0  0.8381966011250105 0.4324429495415054 0  0.8217986951623264 0.4592019000520907 0  0.8097886967409692 0.4881966011250107 0  0.8024623318809725 0.5187131069919539 0  0.8 0.55 0  0.8024623318809725 0.5812868930080463 0  0.8097886967409693 0.6118033988749896 0  0.8217986951623264 0.6407980999479095 0  0.8381966011250105 0.6675570504584947 0  0.8585786437626906 0.6914213562373096 0  0.8824429495415054 0.7118033988749896 0  0.9092019000520907 0.7282013048376736 0  0.9381966011250106 0.7402113032590307 0  0.9687131069919539 0.7475376681190276 0  1 0.75 0  1.031286893008046 0.7475376681190276 0  1.06180339887499 0.7402113032590307 0  1.090798099947909 0.7282013048376736 0  1.117557050458495 0.7118033988749896 0  1.141421356237309 0.6914213562373095 0  1.161803398874989 0.6675570504584947 0  1.178201304837674 0.6407980999479094 0  1.190211303259031 0.6118033988749896 0  3.75 0 0  3.75 1 0  1.875 0 0  1.875 1 0  0.9375 0 0  0.9375 1 0  1.40625 1 0  5.625 1 0  5.625 0 0  2.8125 1 0  2.8125 0 0  4.6875 0 0  4.6875 1 0  6.5625 0 0  6.5625 1 0  5.15625 0.5 0  4.21875 0.5 0  2.34375 0.5 0  3.28125 0.5 0  6.09375 0.5 0  7.5 0.5 0  6.897916666666666 0.5 0  1.842708333333333 0.5 0  0 0.5 0  0.46875 0 0  5.625 0.5302734375 0  7.03125 0 0  6.09375 1 0  2.8125 0.4697265625 0  3.28125 0 0  2.34375 1 0  2.34375 0 0  3.75 0.4697265625 0  4.21875 0 0  4.21875 1 0  4.6875 0.5302734375 0  3.28125 1 0  5.15625 0 0  6.09375 0 0  5.15625 1 0  0.46875 1 0  1.40625 0 0  7.03125 1 0  0.3954638734376499 0.5975780249976004 0  6.495833333333334 0.4072265624999998 0  5.859375 0.25 0  4.905729166666666 0.26513671875 0  4.453125 0.25 0  3.531770833333333 0.73486328125 0  3.968229166666667 0.73486328125 0  2.594270833333333 0.73486328125 0  3.030729166666667 0.73486328125 0  6.328125 0.75 0  7.198958333333334 0.3125000000000002 0  7.198958333333334 0.6874999999999998 0  5.390625 0.25 0  0 0.25 0  2.109375 0.75 0  2.109375 0.25 0  1.51921323205749 0.3418883887525936 0  1.522346610178253 0.6811769608297746 0  5.375456746419271 0.75 0  4.921875 0.76513671875 0  4.437956746419271 0.75 0  3.984375 0.23486328125 0  3.500456746419271 0.25 0  2.578125 0.23486328125 0  3.046875 0.23486328125 0  5.874543253580729 0.75 0  6.642123189445656 0.6909095493086836 0  6.746354166666666 0.2391688368055553 0  0.3197109619185111 0.2850049285972083 0  6.328125 0 0  0.6313375889370429 0.2351325552547357 0  0 0.75 0  6.252283381534729 0.2693808819694041 0  0.234375 1 0  6.948437500000001 0.7543055555555555 0  0.5934018769555939 0.7694151657947577 0  1.858854166666667 0.75 0  1.858854166666667 0.25 0  1.640625 0 0  2.093229166666667 0.5 0  7.5 0.25 0  3.282227579752604 0.75 0  7.5 0.75 0  1.171875 0 0  1.303539853147731 0.2235426933121065 0  5.148177083333333 0.2575683593749998 0  2.351822916666667 0.742431640625 0  1.640625 1 0  4.202380413457425 0.7645435094236485 0  3.047822985053062 0.4701848030090332 0  2.577177014946938 0.4701848030090332 0  4.672792740482199 0.76513671875 0  4.922822985053062 0.5298151969909668 0  5.390593497949761 0.5156244924311331 0  5.610292740482199 0.76513671875 0  3.516602579752604 0.5 0  4.45496853898097 0.4865915990446593 0  5.85753146101903 0.4865915990446593 0  3.749511210123698 0.23486328125 0  3.983397420247396 0.4999999999999999 0  2.343497975411212 0.2346270081980111 0  4.219002024588788 0.2346270081980111 0  0.703125 0 0  2.8125 0.2343755075688669 0  3.046875 0 0  2.578125 0 0  3.515625 0 0  3.984375 0 0  4.453125 1 0  5.390625 1 0  2.109375 0 0  2.109375 1 0  5.625 0.2921402030705575 0  5.390625 0 0  7.265625 0 0  6.796875 0 0  6.328125 1 0  3.046875 1 0  2.578125 1 0  3.984375 1 0  3.515625 1 0  4.453125 0 0  4.921875 0 0  5.859375 0 0  0.703125 1 0  1.171875 1 0  7.265625 1 0  4.921875 1 0  5.859375 1 0  0.234375 0 0  6.796875 1 0  6.980310975276531 0.2285890127127066 0  5.149170481934885 0.772689292163473 0  3.274170481934884 0.2273107078365268 0  6.101334126790364 0.7722468376159667 0  4.678005340872584 0.3000799877067239 0  2.8125 0.6921051326382495 0  3.75 0.6921051326382495 0  0.3515624999999999 0.8134571721668546 0  0.4990405774417521 0.4070099317153735 0  0.1789273931360182 0.625 0  6.31239060814315 0.5298877111157968 0  6.456979773992304 0.1917956348713352 0  6.699870808919271 0.4406293402777773 0  1.337539480965883 0.7944303676599538 0  6.058675797563041 0.2019812164653516 0  0.8203125 0.1643029084422534 0  0.1480856513011711 0.375 0  1.090769294689562 0.1719186776982972 0  7.291088163206459 0.5 0  7.094502414936563 0.5197902199074071 0  0.6046212059042245 0.5730066483871106 0  1.707231580809486 0.6342709161352207 0  1.685961352504593 0.8193269193390785 0  1.374721602852827 0.4600373025865813 0  6.486415510043844 0.5916440776477192 0  1.5234375 0.1508863828685116 0  1.707925830421689 0.3657739208189008 0  0.1674513225045584 0.8278776664019765 0  7.138268756771176 0.1438183366439137 0  7.1484375 0.8616388888888887 0  7.328562530764119 0.819498462930605 0  4.101073710123698 0.3678637200736647 0  1.693878467219965 0.1911955120941053 0  1.577566745468488 0.5110082404081502 0  6.6796875 0.8653871806883484 0  6.498039504430512 0.825568433346395 0  0.7562556668576472 0.8333197949571929 0  4.101045914668806 0.6255195807449272 0  5.030745188395182 0.382829047309028 0  2.476364945868651 0.6095868094762166 0  2.729359843907322 0.8460525663191247 0  2.9296875 0.8740763101564099 0  3.163518307559356 0.6254622797994247 0  3.666859843907322 0.8460525663191247 0  3.8671875 0.8740763101564099 0  4.8046875 0.12592368984359 0  3.14936031382311 0.8606990583876851 0  2.4609375 0.8747622921397776 0  5.023140791101972 0.1392266772452574 0  0 0.125 0  0.1759922923594607 0.1727589856739889 0  4.5703125 0.125 0  7.327755777818006 0.1766156770456191 0  5.5078125 0.125 0  5.719712725029036 0.1460701015352787 0  4.327848962028002 0.3674169956512513 0  5.982681121544351 0.3692637923021713 0  3.398926289876302 0.6245417594909667 0  5.281756792511996 0.3827993367299961 0  2.226822645963271 0.6252438868405666 0  2.234390064317166 0.8676616584526566 0  5.2734375 0.125 0  1.96796875 0.382568359375 0  2.234651037971999 0.3674169956512511 0  1.984114583333333 0.132568359375 0  1.9921875 0.875 0  1.984114583333333 0.632568359375 0  5.748733794462357 0.8678269127183313 0  3.3984375 0.875456329184688 0  1.512925924995415 0.8582958012121853 0  1.359299372802969 0.6275861864990343 0  4.810521420483513 0.4041767793635395 0  0.2996213306116602 0.455339710363317 0  5.999933717403708 0.6388425470751088 0  5.250033449003657 0.6388713364551682 0  3.631676045992918 0.3525406652400928 0  4.3359375 0.8816499670325881 0  4.343577437052484 0.6116511299909198 0  3.375033449003656 0.3611286635448316 0  5.763152151652243 0.6249404690537395 0  4.549347848347757 0.6249404690537396 0  5.5004588702411 0.6403667365776566 0  5.976118394847484 0.8816230218343086 0  5.054722486865804 0.6338007028640954 0  3.164542163493752 0.3520519332736524 0  2.445407482032355 0.3672168403687257 0  4.8046875 0.882568359375 0  4.1015625 0.117431640625 0  2.4609375 0.117431640625 0  2.695556894938151 0.3520510350344335 0  2.929443105061849 0.3520510350344335 0  3.881979231817319 0.3670559016511187 0  3.8671875 0.117431640625 0  4.805389247695744 0.6470047893641744 0  3.399370721942191 0.1184066543556767 0  5.274370721942192 0.881593345644323 0  3.618253274934649 0.1316869186284249 0  2.6953125 0.1171877537844335 0  2.9296875 0.1171877537844335 0  2.21873344389451 0.125 0  4.3359375 0.1171877625080073 0  0.6659898565672709 0.3986593551313873 0  7.363359022954956 0.3481046411219251 0  7.363359022954956 0.6518953588780749 0  5.487719392831826 0.3828237631077121 0  2.695054578344725 0.5809158475691247 0  2.944553877887707 0.5964065668438148 0  0.3515625 0.1201898858097106 0  5.5078125 1 0  4.5703125 1 0  5.031746201297604 0.882568359375 0  3.1640625 0 0  6.2109375 1 0  6.186845385763124 0.6336356480571081 0  4.1015625 1 0  6.810399074069772 0.6495574751396682 0  0.4740615253480797 0.2509287743856873 0  7.052064303830151 0.3684417917792242 0  6.195177069665382 0.1216488332168849 0  5.72300154718324 0.4112068202852788 0  3.879157465495092 0.6111892850691246 0  3.645760045247695 0.5809158475691247 0  6.868257400485771 0.3427840810237202 0  6.612030892260864 0.1521752713064389 0  6.615666885941117 0.3151079644097221 0  4.04296875 0.8633718902669071 0  1.183031453639096 0.8486801864185936 0  6.9140625 0 0  6.859079526500421 0.1398292786950638 0  6.808232443325651 0.7957411753922057 0  6.9140625 1 0  4.544955211100143 0.3675874343205077 0  1.0546875 1 0  6.122060236165557 0.3316791557072867 0  0.5859375 0 0  5.9765625 0 0  5.44921875 0.870984788733638 0  4.51171875 0.870984788733638 0  0.7608354256382215 0.2931261274224557 0  6.386875332239937 0.3156583003094978 0  6.985654756850997 0.6147408423643147 0  6.223797257919172 0.8535621912121121 0  5.936822413218736 0.1338376546337823 0  6.23933008800134 0.4095573603773768 0  0.5414022462152697 0.1305482677949959 0  6.331360438104348 0.1370086318183389 0  0.956404929269873 0.1374266563647954 0  1.2890625 1 0  0.691305981127761 0.6764829884281737 0  3.531251607241209 0.8678916320952239 0  2.59787442813022 
[...]
<PointData  Vectors="f_71627"> 
<DataArray  type="Float64"  Name="f_71627"  NumberOfComponents="3" format="ascii">0.0000000000000000e+00 0.0000000000000000e+00 0.0000000000000000e+00  0.0000000000000000e+00 0.0000000000000000e+00 0.0000000000000000e+00  0.0000000000000000e+00 0.0000000000000000e+00 0.0000000000000000e+00  0.0000000000000000e+00 0.0000000000000000e+00 0.0000000000000000e+00  0.0000000000000000e+00 0.0000000000000000e+00 0.0000000000000000e+00  0.0000000000000000e+00 0.0000000000000000e+00 0.0000000000000000e+00  0.0000000000000000e+00 0.0000000000000000e+00 0.0000000000000000e+00  0.0000000000000000e+00 0.0000000000000000e+00 0.0000000000000000e+00  0.0000000000000000e+00 0.0000000000000000e+00 0.0000000000000000e+00  0.0000000000000000e+00 0.0000000000000000e+00 0.0000000000000000e+00  0.0000000000000000e+00 0.0000000000000000e+00 0.0000000000000000e+00  0.0000000000000000e+00 0.0000000000000000e+00 0.0000000000000000e+00  0.0000000000000000e+00 0.0000000000000000e+00 0.0000000000000000e+00  0.0000000000000000e+00 0.0000000000000000e+00 0.0000000000000000e+00  0.0000000000000000e+00 0.0000000000000000e+00 0.0000000000000000e+00  0.0000000000000000e+00 0.0000000000000000e+00 0.0000000000000000e+00  0.0000000000000000e+00 0.0000000000000000e+00 0.0000000000000000e+00  0.0000000000000000e+00 0.0000000000000000e+00 0.0000000000000000e+00  0.0000000000000000e+00 0.0000000000000000e+00 0.0000000000000000e+00  0.0000000000000000e+00 0.0000000000000000e+00 0.0000000000000000e+00  0.0000000000000000e+00 0.0000000000000000e+00 0.0000000000000000e+00  0.0000000000000000e+00 0.0000000000000000e+00 0.0000000000000000e+00  0.0000000000000000e+00 0.0000000000000000e+00 0.0000000000000000e+00  0.0000000000000000e+00 0.0000000000000000e+00 0.0000000000000000e+00  0.0000000000000000e+00 0.0000000000000000e+00 0.0000000000000000e+00  0.0000000000000000e+00 0.0000000000000000e+00 0.0000000000000000e+00  0.0000000000000000e+00 0.0000000000000000e+00 0.0000000000000000e+00  0.0000000000000000e+00 0.0000000000000000e+00 0.0000000000000000e+00  0.0000000000000000e+00 0.0000000000000000e+00 0.0000000000000000e+00  0.0000000000000000e+00 0.0000000000000000e+00 0.0000000000000000e+00  0.0000000000000000e+00 0.0000000000000000e+00 0.0000000000000000e+00  0.0000000000000000e+00 0.0000000000000000e+00 0.0000000000000000e+00  0.0000000000000000e+00 0.0000000000000000e+00 0.0000000000000000e+00  0.0000000000000000e+00 0.0000000000000000e+00 0.0000000000000000e+00  0.0000000000000000e+00 0.0000000000000000e+00 0.0000000000000000e+00  0.0000000000000000e+00 0.0000000000000000e+00 0.0000000000000000e+00  0.0000000000000000e+00 0.0000000000000000e+00 0.0000000000000000e+00  0.0000000000000000e+00 0.0000000000000000e+00 0.0000000000000000e+00  0.0000000000000000e+00 0.0000000000000000e+00 0.0000000000000000e+00  0.0000000000000000e+00 0.0000000000000000e+00 0.0000000000000000e+00  0.0000000000000000e+00 0.0000000000000000e+00 0.0000000000000000e+00  0.0000000000000000e+00 0.0000000000000000e+00 0.0000000000000000e+00  0.0000000000000000e+00 0.0000000000000000e+00 0.0000000000000000e+00  0.0000000000000000e+00 0.0000000000000000e+00 0.0000000000000000e+00  0.0000000000000000e+00 0.0000000000000000e+00 0.0000000000000000e+00  0.0000000000000000e+00 0.0000000000000000e+00 0.0000000000000000e+00  0.0000000000000000e+00 0.0000000000000000e+00 0.0000000000000000e+00  0.0000000000000000e+00 0.0000000000000000e+00 0.0000000000000000e+00  0.0000000000000000e+00 0.0000000000000000e+00 0.0000000000000000e+00  0.0000000000000000e+00 0.0000000000000000e+00 0.0000000000000000e+00  0.0000000000000000e+00 0.0000000000000000e+00 0.0000000000000000e+00  0.0000000000000000e+00 0.0000000000000000e+00 0.0000000000000000e+00  0.0000000000000000e+00 0.0000000000000000e+00 0.0000000000000000e+00  0.0000000000000000e+00 0.0000000000000000e+00 0.0000000000000000e+00  0.0000000000000000e+00 0.0000000000000000e+00 0.0000000000000000e+00  0.0000000000000000e+00 0.0000000000000000e+00 0.0000000000000000e+00  0.0000000000000000e+00 0.0000000000000000e+00 0.0000000000000000e+00  0.0000000000000000e+00 0.0000000000000000e+00 0.0000000000000000e+00  0.0000000000000000e+00 0.0000000000000000e+00 0.0000000000000000e+00  1.1277738283134753e+00 -8.8238150375105845e-04 0.0000000000000000e+00  1.1375081311376087e+00 -7.3657300275229695e-02 0.0000000000000000e+00  1.2857820010570453e+00 -3.6979436307494778e-03 0.0000000000000000e+00  1.7188400380962441e+00 9.4695194298359631e-01 0.0000000000000000e+00  1.1270753905263622e+00 -8.9684746518647928e-04 0.0000000000000000e+00  1.5000002051526158e+00 0.0000000000000000e+00 0.0000000000000000e+00  1.2042052704773443e+00 -2.4616455781669181e-03 0.0000000000000000e+00  1.1515714199449067e+00 4.7259381389299271e-01 0.0000000000000000e+00  1.5000002051526158e+00 0.0000000000000000e+00 0.0000000000000000e+00  0.0000000000000000e+00 0.0000000000000000e+00 0.0000000000000000e+00  1.1347276147373764e+00 4.0506943797445367e-04 0.0000000000000000e+00  0.0000000000000000e+00 0.0000000000000000e+00 0.0000000000000000e+00  0.0000000000000000e+00 0.0000000000000000e+00 0.0000000000000000e+00  1.9354205463115841e+00 -7.3348805881808410e-01 0.0000000000000000e+00  0.0000000000000000e+00 0.0000000000000000e+00 0.0000000000000000e+00  0.0000000000000000e+00 0.0000000000000000e+00 0.0000000000000000e+00  0.0000000000000000e+00 0.0000000000000000e+00 0.0000000000000000e+00  8.5010422932638274e-01 -3.4998842091477272e-01 0.0000000000000000e+00  0.0000000000000000e+00 0.0000000000000000e+00 0.0000000000000000e+00  0.0000000000000000e+00 0.0000000000000000e+00 0.0000000000000000e+00  1.1327525971863419e+00 -1.0236761169508130e-02 0.0000000000000000e+00  0.0000000000000000e+00 0.0000000000000000e+00 0.0000000000000000e+00  0.0000000000000000e+00 0.0000000000000000e+00 0.0000000000000000e+00  0.0000000000000000e+00 0.0000000000000000e+00 0.0000000000000000e+00  0.0000000000000000e+00 0.0000000000000000e+00 0.0000000000000000e+00  0.0000000000000000e+00 0.0000000000000000e+00 0.0000000000000000e+00  0.0000000000000000e+00 0.0000000000000000e+00 0.0000000000000000e+00  0.0000000000000000e+00 0.0000000000000000e+00 0.0000000000000000e+00  1.3759118593385633e+00 3.8638159944223455e-02 0.0000000000000000e+00  1.1498935032053155e+00 -4.2257873411479163e-03 0.0000000000000000e+00  1.1318941001096867e+00 3.6252277982068556e-04 0.0000000000000000e+00  1.1138480453619097e+00 -1.9981926132178053e-03 0.0000000000000000e+00  1.0908519454466916e+00 -1.4542626846159845e-02 0.0000000000000000e+00  1.4921690081574344e+00 5.3210003860535338e-01 0.0000000000000000e+00  1.3302507513200306e+00 -9.5755979713202863e-02 0.0000000000000000e+00  9.2446117611141088e-01 -5.6521216544140496e-01 0.0000000000000000e+00  5.9570910644202646e-01 6.4803590639035835e-01 0.0000000000000000e+00  1.1337485414789299e+00 2.2958012390368956e-05 0.0000000000000000e+00  8.4866922202026340e-01 -2.4516495971999199e-03 0.0000000000000000e+00  9.7463710599550801e-01 1.5076396037059080e-02 0.0000000000000000e+00  1.1191234267636683e+00 -2.1084403362817500e-04 0.0000000000000000e+00  1.1250001538644616e+00 0.0000000000000000e+00 0.0000000000000000e+00  8.3772671409136856e-01 4.0035183338419245e-01 0.0000000000000000e+00  1.4327001492238440e+00 1.4042562979725659e-01 0.0000000000000000e+00  1.1992924191480319e+00 -1.3649578343076019e-01 0.0000000000000000e+00  1.2265344585861977e+00 -1.0938330441343829e+00 0.0000000000000000e+00  1.1311668225173408e+00 6.5717075510067090e-04 0.0000000000000000e+00  1.1372628932084827e+00 2.4832595515898789e-05 0.0000000000000000e+00  1.1563429146859754e+00 -1.4452213133713154e-02 0.0000000000000000e+00  9.8007718856395798e-01 -9.1730841311405645e-02 0.0000000000000000e+00  5.9462187194191873e-01 -6.9503658262919987e-02 0.0000000000000000e+00  6.2001407236653472e-01 2.5261784242029844e-01 0.0000000000000000e+00  1.3671465487002166e+00 2.7806796429064656e-01 0.0000000000000000e+00  1.1347193050902766e+00 -1.4275351883928939e-03 0.0000000000000000e+00  1.1129507800391150e+00 -4.8863677811611655e-04 0.0000000000000000e+00  1.1274248549772452e+00 -1.0355506621757481e-02 0.0000000000000000e+00  1.2115098915448288e+00 -3.9251663824020101e-02 0.0000000000000000e+00  0.0000000000000000e+00 0.0000000000000000e+00 0.0000000000000000e+00  1.1620923751182450e+00 -2.6469168620915184e-01 0.0000000000000000e+00  1.1250001538644616e+00 0.0000000000000000e+00 0.0000000000000000e+00  1.1372664026969850e+00 3.7462918512807634e-03 0.0000000000000000e+00  0.0000000000000000e+00 0.0000000000000000e+00 0.0000000000000000e+00  1.2675311030852447e+00 -2.8084970536973440e-03 0.0000000000000000e+00  1.1253651889302596e+00 2.6672373606786720e-01 0.0000000000000000e+00  1.9995524310404122e-01 4.0766432924730686e-02 0.0000000000000000e+00  2.1387541314282088e+00 8.3160917550030677e-01 0.0000000000000000e+00  0.0000000000000000e+00 0.0000000000000000e+00 0.0000000000000000e+00  1.3690381499989692e+00 8.0623149265677663e-01 0.0000000000000000e+00  1.1250001538644616e+00 0.0000000000000000e+00 0.0000000000000000e+00  1.2574000534609102e+00 4.9644841846141846e-01 0.0000000000000000e+00  1.1250001538644616e+00 0.0000000000000000e+00 0.0000000000000000e+00  0.0000000000000000e+00 0.0000000000000000e+00 0.0000000000000000e+00  2.1842818645128612e+00 -1.9873420833936481e-01 0.0000000000000000e+00  1.1204255054503183e+00 -1.8955582177715552e-04 0.0000000000000000e+00  1.6626332393862409e+00 -4.7319732128306902e-01 0.0000000000000000e+00  0.0000000000000000e+00 0.0000000000000000e+00 0.0000000000000000e+00  1.2018589038500438e+00 -3.1755739552781825e-02 0.0000000000000000e+00  1.9244268340427195e+00 1.1734231740670298e+00 0.0000000000000000e+00  2.1388861844011959e+00 -7.8894113722615899e-01 0.0000000000000000e+00  1.1441169439886829e+00 -3.5788242659194123e-03 0.0000000000000000e+00  1.1283150581878605e+00 -3.3317878217918712e-03 0.0000000000000000e+00  1.1310421034526994e+00 1.0736089511605483e-03 0.0000000000000000e+00  1.1331150367942298e+00 1.4209325632645626e-03 0.0000000000000000e+00  1.1493028321588394e+00 -2.7451197146906142e-01 0.0000000000000000e+00  1.1271431380782893e+00 -2.6160207062831904e-02 0.0000000000000000e+00  1.1375757732106331e+00 1.3178011464871266e-04 0.0000000000000000e+00  8.1082521907453542e-01 -1.3004981893017437e-01 0.0000000000000000e+00  1.1257047358820085e+00 -2.0814537714156586e-01 0.0000000000000000e+00  9.4655585755777816e-01 -8.4305870398491536e-02 0.0000000000000000e+00  1.0543779528727142e+00 -3.9710993317764468e-02 0.0000000000000000e+00  0.0000000000000000e+00 0.0000000000000000e+00 0.0000000000000000e+00  1.6058907753662657e+00 -6.7001231778220605e-01 0.0000000000000000e+00  0.0000000000000000e+00 0.0000000000000000e+00 0.0000000000000000e+00  0.0000000000000000e+00 0.0000000000000000e+00 0.0000000000000000e+00  0.0000000000000000e+00 0.0000000000000000e+00 0.0000000000000000e+00  0.0000000000000000e+00 0.0000000000000000e+00 0.0000000000000000e+00  0.0000000000000000e+00 0.0000000000000000e+00 0.0000000000000000e+00  0.0000000000000000e+00 0.0000000000000000e+00 0.0000000000000000e+00  0.0000000000000000e+00 0.0000000000000000e+00 0.0000000000000000e+00  0.0000000000000000e+00 0.0000000000000000e+00 0.0000000000000000e+00  1.1215403437272569e+00 4.0598496080558746e-05 0.0000000000000000e+00  0.0000000000000000e+00 0.0000000000000000e+00 0.0000000000000000e+00  0.0000000000000000e+00 0.0000000000000000e+00 0.0000000000000000e+00  0.0000000000000000e+00 0.0000000000000000e+00 0.0000000000000000e+00  0.0000000000000000e+00 0.0000000000000000e+00 0.0000000000000000e+00  0.0000000000000000e+00 0.0000000000000000e+00 0.0000000000000000e+00  0.0000000000000000e+00 0.0000000000000000e+00 0.0000000000000000e+00  0.0000000000000000e+00 0.0000000000000000e+00 0.0000000000000000e+00  0.0000000000000000e+00 0.0000000000000000e+00 0.0000000000000000e+00  0.0000000000000000e+00 0.0000000000000000e+00 0.0000000000000000e+00  0.0000000000000000e+00 0.0000000000000000e+00 0.0000000000000000e+00  0.0000000000000000e+00 0.0000000000000000e+00 0.0000000000000000e+00  0.0000000000000000e+00 0.0000000000000000e+00 0.0000000000000000e+00  0.0000000000000000e+00 0.0000000000000000e+00 0.0000000000000000e+00  0.0000000000000000e+00 0.0000000000000000e+00 0.0000000000000000e+00  0.0000000000000000e+00 0.0000000000000000e+00 0.0000000000000000e+00  0.0000000000000000e+00 0.0000000000000000e+00 0.0000000000000000e+00  0.0000000000000000e+00 0.0000000000000000e+00 0.0000000000000000e+00  0.0000000000000000e+00 0.0000000000000000e+00 0.0000000000000000e+00  1.1717320230774140e+00 -3.6047401007613362e-04 0.0000000000000000e+00  1.1328518898677973e+00 1.0491561691277648e-03 0.0000000000000000e+00  6.4390992771921129e-01 1.8305127081280670e-01 0.0000000000000000e+00  1.1340911258977753e+00 -1.6740382660338589e-03 0.0000000000000000e+00  1.1121671563485371e+00 -8.3605868053906532e-03 0.0000000000000000e+00  8.6998475321720481e-01 -4.1604258632392155e-01 0.0000000000000000e+00  1.5602865090574771e+00 -1.3467550697337599e-01 0.0000000000000000e+00  9.4454858848772849e-01 5.9625122765376792e-02 0.0000000000000000e+00  1.3235296554764633e+00 -9.8446401871242997e-02 0.0000000000000000e+00  1.3963673957980076e+00 2.1199174247379032e-02 0.0000000000000000e+00  1.1309745282550796e+00 -1.4268983896797032e-03 0.0000000000000000e+00  1.1534160004576079e+00 -4.4888672235301914e-03 0.0000000000000000e+00  1.1838040677504500e+00 -7.3773036342157372e-03 0.0000000000000000e+00  2.2721593114430823e+00 -4.3567801922293492e-01 0.0000000000000000e+00  1.1360260234668316e+00 2.7870904203132729e-04 0.0000000000000000e+00  1.3188043403748266e+00 -3.2863263958745276e-01 0.0000000000000000e+00  1.4023968921401777e+00 -6.8176936953191184e-04 0.0000000000000000e+00  1.8807867804201397e+00 -2.1709173179668229e-01 0.0000000000000000e+00  1.3824885438787560e+00 1.7259865973199488e-03 0.0000000000000000e+00  1.3600640772211159e+00 2.0296621329422577e-03 0.0000000000000000e+00  1.1637927028051323e+00 1.0986370288607640e-01 0.0000000000000000e+00  8.9764698865080553e-02 -1.0658146244256752e+00 0.0000000000000000e+00  1.0450241968807024e+00 -3.2754596671128611e-01 0.0000000000000000e+00  -1.1444656112143639e+00 -6.5787349097561842e-01 0.0000000000000000e+00  1.1341969145497202e+00 -1.6644900749518690e-03 0.0000000000000000e+00  2.2560279736221802e+00 1.5924122245894384e-01 0.0000000000000000e+00  1.6850131353350355e+00 3.6513997277216820e-01 0.0000000000000000e+00  8.6202984640281155e-01 2.3212389594516478e-02 0.0000000000000000e+00  9.0514696958527707e-01 -1.7718253260491934e-03 0.0000000000000000e+00  1.0184175491254217e+00 -5.0514305832639113e-04 0.0000000000000000e+00  7.9736434913953647e-01 -4.2134913783112389e-03 0.0000000000000000e+00  1.0673795683440894e+00 -1.0457738163107479e-01 0.0000000000000000e+00  2.2649797580896434e+00 5.3288358258707369e-01 0.0000000000000000e+00  -1.0790702537242580e+00 -1.1734803549549842e+00 0.0000000000000000e+00  1.1024721667658011e+00 7.1185689544653857e-03 0.0000000000000000e+00  1.0597534960378785e+00 -1.9015780742231477e-03 0.0000000000000000e+00  1.2968654114330602e+00 4.7066177255171021e-01 0.0000000000000000e+00  1.2021970888399029e+00 -1.0325370177569396e-01 0.0000000000000000e+00  1.1245099660190268e+00 -1.6069957339947159e-03 0.0000000000000000e+00  1.8108523292398084e+00 -7.6689740552832875e-01 0.0000000000000000e+00  -4.1684918845722547e-03 -4.9732231357128426e-01 0.0000000000000000e+00  -2.8071618520783620e-01 7.1602866407684623e-02 0.0000000000000000e+00  1.4801815846858786e+00 1.0482433410916159e+00 0.0000000000000000e+00  1.5998046384464915e+00 -1.2799003238040313e-01 0.0000000000000000e+00  1.1762635856174766e+00 -3.1133043468633381e-02 0.0000000000000000e+00  1.0322615933824932e+00 -5.4330109729675490e-04 0.0000000000000000e+00  5.2484334599067994e-01 3.9134605329471167e-01 0.0000000000000000e+00  7.3940656305650287e-01 -6.8681815295579554e-02 0.0000000000000000e+00  1.0661527082667019e+00 1.4720336746722924e-03 0.0000000000000000e+00  6.5625008975426924e-01 0.0000000000000000e+00 0.0000000000000000e+00  8.5647262803595847e-01 -8.4402913119139087e-03 0.0000000000000000e+00  1.0222528714086090e+00 -2.9169257972910647e-03 0.0000000000000000e+00  5.5181912360648555e-01 2.8773485360420979e-02 0.0000000000000000e+00  1.0443761012255117e+00 1.3142303302710356e-03 0.0000000000000000e+00  1.0867796673348071e+00 2.0240727864073005e-04 0.0000000000000000e+00  1.1002283218122570e+00 -4.0345138350717964e-02 0.0000000000000000e+00  1.1160850379274696e+00 -4.7463048111078161e-04 0.0000000000000000e+00  2.1693793486703092e+00 5.1144107569453889e-01 0.0000000000000000e+00  1.1261561039566947e+00 -7.0694902421176574e-05 0.0000000000000000e+00  1.1631843597034710e+00 2.7744703892524858e-01 0.0000000000000000e+00  1.0055873497394319e+00 7.3850547830225314e-04 0.0000000000000000e+00  1.0442660113906628e+00 -3.6160706122059154e-04 0.0000000000000000e+00  1.9337704411768000e+00 1.0654091940445785e+00 0.0000000000000000e+00  1.3003904896799796e+00 1.5206364481622867e-01 0.0000000000000000e+00  7.4629633443367527e-01 2.4915785327116707e-01 0.0000000000000000e+00  1.1209161680948845e+00 1.6510027110583358e-01 0.0000000000000000e+00  5.9430308906618312e-01 1.0841460845764206e+00 0.0000000000000000e+00  1.0624735152386784e+00 4.1046229263061939e-04 0.0000000000000000e+00  8.0036349777073512e-01 2.7507164493070235e-01 0.0000000000000000e+00  1.5563449536102458e+00 -5.0204444856938724e-01 0.0000000000000000e+00  3.9040095267770009e-01 -1.8738440223517061e-01 0.0000000000000000e+00  1.1230434695792750e+00 -6.6179058272965224e-03 0.0000000000000000e+00  1.4509098877154931e+00 -8.5033229757613821e-03 0.0000000000000000e+00  1.1318943853702175e+00 -6.7109126554771624e-05 0.0000000000000000e+00  1.1340534636601016e+00 -1.1296740215232849e-04 0.0000000000000000e+00  7.0160630922507838e-01 -2.0002088446744479e-01 0.0000000000000000e+00  1.0460702349282052e+00 -2.0358568055419517e-03 0.0000000000000000e+00  1.1594005924937731e+00 -4.0178013221258906e-02 0.0000000000000000e+00  5.7325948206538135e-01 -2.7632342542518888e-02 0.0000000000000000e+00  1.1356699751900023e+00 -3.3302269924582372e-04 0.0000000000000000e+00  1.1426104796355765e+00 -1.5304334901707815e-02 0.0000000000000000e+00  1.1377389970373375e+00 -4.4714345650026413e-04 0.0000000000000000e+00  1.0342513833515736e+00 9.6317135411238988e-04 0.0000000000000000e+00  1.1356011057643522e+00 -1.3823661757094161e-03 0.0000000000000000e+00  1.3113275371957169e+00 8.3989572077205732e-01 0.0000000000000000e+00  1.2906019884319835e+00 3.3982187735472941e-01 0.0000000000000000e+00  1.0198492316597842e+00 1.1625497361047296e-03 0.0000000000000000e+00  9.4972989197508950e-01 -2.0991880851243983e-02 0.0000000000000000e+00  6.6637606854100750e-01 5.2905650315543541e-02 0.0000000000000000e+00  2.2539583619085346e+00 -1.1320122209160342e+00 0.0000000000000000e+00  2.2989839929013036e+00 9.7652469750350718e-02 0.0000000000000000e+00  9.4011114843632959e-01 -2.1243380029940390e-01 0.0000000000000000e+00  8.6326273630695538e-01 -3.5488961223094348e-02 0.0000000000000000e+00  1.1375718035894138e+00 -4.8273579250551158e-03 0.0000000000000000e+00  6.3291217340127182e-01 2.3903386835931583e-02 0.0000000000000000e+00  1.0233460546705186e+00 2.9658056950723495e-04 0.0000000000000000e+00  7.1976308870522687e-01 -4.1381727943628051e-02 0.0000000000000000e+00  4.0879777050795135e-01 -1.0885345490688854e-01 0.0000000000000000e+00  8.4079835333915409e-01 -1.2614250955199457e-01 0.0000000000000000e+00  6.0001247308908712e-01 -1.2012661017245863e-01 0.0000000000000000e+00  9.9020297889680109e-01 -8.4526757445957251e-03 0.0000000000000000e+00  1.1677713080416099e+00 -3.3163854884646060e-01 0.0000000000000000e+00  1.0065247363015193e+00 -5.9062450578387790e-03 0.0000000000000000e+00  1.0916861739964550e+00 1.1017193208088971e-02 0.0000000000000000e+00  1.1255684739023328e+00 -3.5919261310308