<?xml version="1.0"?>
<VTKFile type="UnstructuredGrid"  version="0.1"  >
<UnstructuredGrid>
<Piece  NumberOfPoints="4269" NumberOfCells="8234">
<Points>
<DataArray  type="Float64"  NumberOfComponents="3"  format="ascii">0 1 0  0 0 0  7.5 0 0  7.5 1 0  1.197537668119028 0.5812868930080463 0  1.2 0.55 0  1.197537668119028 0.5187131069919538 0  1.190211303259031 0.4881966011250105 0  1.178201304837674 0.4592019000520907 0  1.161803398874989 0.4324429495415054 0  1.141421356237309 0.4085786437626905 0  1.117557050458495 0.3881966011250105 0  1.090798099947909 0.3717986951623264 0  1.06180339887499 0.3597886967409693 0  1.031286893008046 0.3524623318809725 0  1 0.35 0  0.9687131069919538 0.3524623318809725 0  0.9381966011250105 0.3597886967409694 0  0.9092019000520906 0.3717986951623264 0  0.8824429495415054 0.3881966011250105 0  0.8585786437626904 0.4085786437626905 0  0.8381966011250105 0.4324429495415054 0  0.8217986951623264 0.4592019000520907 0  0.8097886967409692 0.4881966011250107 0  0.8024623318809725 0.5187131069919539 0  0.8 0.55 0  0.8024623318809725 0.5812868930080463 0  0.8097886967409693 0.6118033988749896 0  0.8217986951623264 0.6407980999479095 0  0.8381966011250105 0.6675570504584947 0  0.8585786437626906 0.6914213562373096 0  0.8824429495415054 0.7118033988749896 0  0.9092019000520907 0.7282013048376736 0  0.9381966011250106 0.7402113032590307 0  0.9687131069919539 0.7475376681190276 0  1 0.75 0  1.031286893008046 0.7475376681190276 0  1.06180339887499 0.7402113032590307 0  1.090798099947909 0.7282013048376736 0  1.117557050458495 0.7118033988749896 0  1.141421356237309 0.6914213562373095 0  1.161803398874989 0.6675570504584947 0  1.178201304837674 0.6407980999479094 0  1.190211303259031 0.6118033988749896 0  3.75 0 0  3.75 1 0  1.875 0 0  1.875 1 0  0.9375 0 0  0.9375 1 0  1.40625 1 0  5.625 1 0  5.625 0 0  2.8125 1 0  2.8125 0 0  4.6875 0 0  4.6875 1 0  6.5625 0 0  6.5625 1 0  5.15625 0.5 0  4.21875 0.5 0  2.34375 0.5 0  3.28125 0.5 0  6.09375 0.5 0  7.5 0.5 0  6.897916666666666 0.5 0  1.842708333333333 0.5 0  0 0.5 0  0.46875 0 0  5.625 0.5302734375 0  7.03125 0 0  6.09375 1 0  2.8125 0.4697265625 0  3.28125 0 0  2.34375 1 0  2.34375 0 0  3.75 0.4697265625 0  4.21875 0 0  4.21875 1 0  4.6875 0.5302734375 0  3.28125 1 0  5.15625 0 0  6.09375 0 0  5.15625 1 0  0.46875 1 0  1.40625 0 0  7.03125 1 0  0.3954638734376499 0.5975780249976004 0  6.495833333333334 0.4072265624999998 0  5.859375 0.25 0  4.905729166666666 0.26513671875 0  4.453125 0.25 0  3.531770833333333 0.73486328125 0  3.968229166666667 0.73486328125 0  2.594270833333333 0.73486328125 0  3.030729166666667 0.73486328125 0  6.328125 0.75 0  7.198958333333334 0.3125000000000002 0  7.198958333333334 0.6874999999999998 0  5.390625 0.25 0  0 0.25 0  2.109375 0.75 0  2.109375 0.25 0  1.51921323205749 0.3418883887525936 0  1.522346610178253 0.6811769608297746 0  5.375456746419271 0.75 0  4.921875 0.76513671875 0  4.437956746419271 0.75 0  3.984375 0.23486328125 0  3.500456746419271 0.25 0  2.578125 0.23486328125 0  3.046875 0.23486328125 0  5.874543253580729 0.75 0  6.642123189445656 0.6909095493086836 0  6.746354166666666 0.2391688368055553 0  0.3197109619185111 0.2850049285972083 0  6.328125 0 0  0.6313375889370429 0.2351325552547357 0  0 0.75 0  6.252283381534729 0.2693808819694041 0  0.234375 1 0  6.948437500000001 0.7543055555555555 0  0.5934018769555939 0.7694151657947577 0  1.858854166666667 0.75 0  1.858854166666667 0.25 0  1.640625 0 0  2.093229166666667 0.5 0  7.5 0.25 0  3.282227579752604 0.75 0  7.5 0.75 0  1.171875 0 0  1.303539853147731 0.2235426933121065 0  5.148177083333333 0.2575683593749998 0  2.351822916666667 0.742431640625 0  1.640625 1 0  4.202380413457425 0.7645435094236485 0  3.047822985053062 0.4701848030090332 0  2.577177014946938 0.4701848030090332 0  4.672792740482199 0.76513671875 0  4.922822985053062 0.5298151969909668 0  5.390593497949761 0.5156244924311331 0  5.610292740482199 0.76513671875 0  3.516602579752604 0.5 0  4.45496853898097 0.4865915990446593 0  5.85753146101903 0.4865915990446593 0  3.749511210123698 0.23486328125 0  3.983397420247396 0.4999999999999999 0  2.343497975411212 0.2346270081980111 0  4.219002024588788 0.2346270081980111 0  0.703125 0 0  2.8125 0.2343755075688669 0  3.046875 0 0  2.578125 0 0  3.515625 0 0  3.984375 0 0  4.453125 1 0  5.390625 1 0  2.109375 0 0  2.109375 1 0  5.625 0.2921402030705575 0  5.390625 0 0  7.265625 0 0  6.796875 0 0  6.328125 1 0  3.046875 1 0  2.578125 1 0  3.984375 1 0  3.515625 1 0  4.453125 0 0  4.921875 0 0  5.859375 0 0  0.703125 1 0  1.171875 1 0  7.265625 1 0  4.921875 1 0  5.859375 1 0  0.234375 0 0  6.796875 1 0  6.980310975276531 0.2285890127127066 0  5.149170481934885 0.772689292163473 0  3.274170481934884 0.2273107078365268 0  6.101334126790364 0.7722468376159667 0  4.678005340872584 0.3000799877067239 0  2.8125 0.6921051326382495 0  3.75 0.6921051326382495 0  0.3515624999999999 0.8134571721668546 0  0.4990405774417521 0.4070099317153735 0  0.1789273931360182 0.625 0  6.31239060814315 0.5298877111157968 0  6.456979773992304 0.1917956348713352 0  6.699870808919271 0.4406293402777773 0  1.337539480965883 0.7944303676599538 0  6.058675797563041 0.2019812164653516 0  0.8203125 0.1643029084422534 0  0.1480856513011711 0.375 0  1.090769294689562 0.1719186776982972 0  7.291088163206459 0.5 0  7.094502414936563 0.5197902199074071 0  0.6046212059042245 0.5730066483871106 0  1.707231580809486 0.6342709161352207 0  1.685961352504593 0.8193269193390785 0  1.374721602852827 0.4600373025865813 0  6.486415510043844 0.5916440776477192 0  1.5234375 0.1508863828685116 0  1.707925830421689 0.3657739208189008 0  0.1674513225045584 0.8278776664019765 0  7.138268756771176 0.1438183366439137 0  7.1484375 0.8616388888888887 0  7.328562530764119 0.819498462930605 0  4.101073710123698 0.3678637200736647 0  1.693878467219965 0.1911955120941053 0  1.577566745468488 0.5110082404081502 0  6.6796875 0.8653871806883484 0  6.498039504430512 0.825568433346395 0  0.7562556668576472 0.8333197949571929 0  4.101045914668806 0.6255195807449272 0  5.030745188395182 0.382829047309028 0  2.476364945868651 0.6095868094762166 0  2.729359843907322 0.8460525663191247 0  2.9296875 0.8740763101564099 0  3.163518307559356 0.6254622797994247 0  3.666859843907322 0.8460525663191247 0  3.8671875 0.8740763101564099 0  4.8046875 0.12592368984359 0  3.14936031382311 0.8606990583876851 0  2.4609375 0.8747622921397776 0  5.023140791101972 0.1392266772452574 0  0 0.125 0  0.1759922923594607 0.1727589856739889 0  4.5703125 0.125 0  7.327755777818006 0.1766156770456191 0  5.5078125 0.125 0  5.719712725029036 0.1460701015352787 0  4.327848962028002 0.3674169956512513 0  5.982681121544351 0.3692637923021713 0  3.398926289876302 0.6245417594909667 0  5.281756792511996 0.3827993367299961 0  2.226822645963271 0.6252438868405666 0  2.234390064317166 0.8676616584526566 0  5.2734375 0.125 0  1.96796875 0.382568359375 0  2.234651037971999 0.3674169956512511 0  1.984114583333333 0.132568359375 0  1.9921875 0.875 0  1.984114583333333 0.632568359375 0  5.748733794462357 0.8678269127183313 0  3.3984375 0.875456329184688 0  1.512925924995415 0.8582958012121853 0  1.359299372802969 0.6275861864990343 0  4.810521420483513 0.4041767793635395 0  0.2996213306116602 0.455339710363317 0  5.999933717403708 0.6388425470751088 0  5.250033449003657 0.6388713364551682 0  3.631676045992918 0.3525406652400928 0  4.3359375 0.8816499670325881 0  4.343577437052484 0.6116511299909198 0  3.375033449003656 0.3611286635448316 0  5.763152151652243 0.6249404690537395 0  4.549347848347757 0.6249404690537396 0  5.5004588702411 0.6403667365776566 0  5.976118394847484 0.8816230218343086 0  5.054722486865804 0.6338007028640954 0  3.164542163493752 0.3520519332736524 0  2.445407482032355 0.3672168403687257 0  4.8046875 0.882568359375 0  4.1015625 0.117431640625 0  2.4609375 0.117431640625 0  2.695556894938151 0.3520510350344335 0  2.929443105061849 0.3520510350344335 0  3.881979231817319 0.3670559016511187 0  3.8671875 0.117431640625 0  4.805389247695744 0.6470047893641744 0  3.399370721942191 0.1184066543556767 0  5.274370721942192 0.881593345644323 0  3.618253274934649 0.1316869186284249 0  2.6953125 0.1171877537844335 0  2.9296875 0.1171877537844335 0  2.21873344389451 0.125 0  4.3359375 0.1171877625080073 0  0.6659898565672709 0.3986593551313873 0  7.363359022954956 0.3481046411219251 0  7.363359022954956 0.6518953588780749 0  5.487719392831826 0.3828237631077121 0  2.695054578344725 0.5809158475691247 0  2.944553877887707 0.5964065668438148 0  0.3515625 0.1201898858097106 0  5.5078125 1 0  4.5703125 1 0  5.031746201297604 0.882568359375 0  3.1640625 0 0  6.2109375 1 0  6.186845385763124 0.6336356480571081 0  4.1015625 1 0  6.810399074069772 0.6495574751396682 0  0.4740615253480797 0.2509287743856873 0  7.052064303830151 0.3684417917792242 0  6.195177069665382 0.1216488332168849 0  5.72300154718324 0.4112068202852788 0  3.879157465495092 0.6111892850691246 0  3.645760045247695 0.5809158475691247 0  6.868257400485771 0.3427840810237202 0  6.612030892260864 0.1521752713064389 0  6.615666885941117 0.3151079644097221 0  4.04296875 0.8633718902669071 0  1.183031453639096 0.8486801864185936 0  6.9140625 0 0  6.859079526500421 0.1398292786950638 0  6.808232443325651 0.7957411753922057 0  6.9140625 1 0  4.544955211100143 0.3675874343205077 0  1.0546875 1 0  6.122060236165557 0.3316791557072867 0  0.5859375 0 0  5.9765625 0 0  5.44921875 0.870984788733638 0  4.51171875 0.870984788733638 0  0.7608354256382215 0.2931261274224557 0  6.386875332239937 0.3156583003094978 0  6.985654756850997 0.6147408423643147 0  6.223797257919172 0.8535621912121121 0  5.936822413218736 0.1338376546337823 0  6.23933008800134 0.4095573603773768 0  0.5414022462152697 0.1305482677949959 0  6.331360438104348 0.1370086318183389 0  0.956404929269873 0.1374266563647954 0  1.2890625 1 0  0.691305981127761 0.6764829884281737 0  3.531251607241209 0.8678916320952239 0  2.59787442813022 
[...]
<PointData  Vectors="f_71627"> 
<DataArray  type="Float64"  Name="f_71627"  NumberOfComponents="3" format="ascii">0.0000000000000000e+00 0.0000000000000000e+00 0.0000000000000000e+00  0.0000000000000000e+00 0.0000000000000000e+00 0.0000000000000000e+00  0.0000000000000000e+00 0.0000000000000000e+00 0.0000000000000000e+00  0.0000000000000000e+00 0.0000000000000000e+00 0.0000000000000000e+00  0.0000000000000000e+00 0.0000000000000000e+00 0.0000000000000000e+00  0.0000000000000000e+00 0.0000000000000000e+00 0.0000000000000000e+00  0.0000000000000000e+00 0.0000000000000000e+00 0.0000000000000000e+00  0.0000000000000000e+00 0.0000000000000000e+00 0.0000000000000000e+00  0.0000000000000000e+00 0.0000000000000000e+00 0.0000000000000000e+00  0.0000000000000000e+00 0.0000000000000000e+00 0.0000000000000000e+00  0.0000000000000000e+00 0.0000000000000000e+00 0.0000000000000000e+00  0.0000000000000000e+00 0.0000000000000000e+00 0.0000000000000000e+00  0.0000000000000000e+00 0.0000000000000000e+00 0.0000000000000000e+00  0.0000000000000000e+00 0.0000000000000000e+00 0.0000000000000000e+00  0.0000000000000000e+00 0.0000000000000000e+00 0.0000000000000000e+00  0.0000000000000000e+00 0.0000000000000000e+00 0.0000000000000000e+00  0.0000000000000000e+00 0.0000000000000000e+00 0.0000000000000000e+00  0.0000000000000000e+00 0.0000000000000000e+00 0.0000000000000000e+00  0.0000000000000000e+00 0.0000000000000000e+00 0.0000000000000000e+00  0.0000000000000000e+00 0.0000000000000000e+00 0.0000000000000000e+00  0.0000000000000000e+00 0.0000000000000000e+00 0.0000000000000000e+00  0.0000000000000000e+00 0.0000000000000000e+00 0.0000000000000000e+00  0.0000000000000000e+00 0.0000000000000000e+00 0.0000000000000000e+00  0.0000000000000000e+00 0.0000000000000000e+00 0.0000000000000000e+00  0.0000000000000000e+00 0.0000000000000000e+00 0.0000000000000000e+00  0.0000000000000000e+00 0.0000000000000000e+00 0.0000000000000000e+00  0.0000000000000000e+00 0.0000000000000000e+00 0.0000000000000000e+00  0.0000000000000000e+00 0.0000000000000000e+00 0.0000000000000000e+00  0.0000000000000000e+00 0.0000000000000000e+00 0.0000000000000000e+00  0.0000000000000000e+00 0.0000000000000000e+00 0.0000000000000000e+00  0.0000000000000000e+00 0.0000000000000000e+00 0.0000000000000000e+00  0.0000000000000000e+00 0.0000000000000000e+00 0.0000000000000000e+00  0.0000000000000000e+00 0.0000000000000000e+00 0.0000000000000000e+00  0.0000000000000000e+00 0.0000000000000000e+00 0.0000000000000000e+00  0.0000000000000000e+00 0.0000000000000000e+00 0.0000000000000000e+00  0.0000000000000000e+00 0.0000000000000000e+00 0.0000000000000000e+00  0.0000000000000000e+00 0.0000000000000000e+00 0.0000000000000000e+00  0.0000000000000000e+00 0.0000000000000000e+00 0.0000000000000000e+00  0.0000000000000000e+00 0.0000000000000000e+00 0.0000000000000000e+00  0.0000000000000000e+00 0.0000000000000000e+00 0.0000000000000000e+00  0.0000000000000000e+00 0.0000000000000000e+00 0.0000000000000000e+00  0.0000000000000000e+00 0.0000000000000000e+00 0.0000000000000000e+00  0.0000000000000000e+00 0.0000000000000000e+00 0.0000000000000000e+00  0.0000000000000000e+00 0.0000000000000000e+00 0.0000000000000000e+00  0.0000000000000000e+00 0.0000000000000000e+00 0.0000000000000000e+00  0.0000000000000000e+00 0.0000000000000000e+00 0.0000000000000000e+00  0.0000000000000000e+00 0.0000000000000000e+00 0.0000000000000000e+00  0.0000000000000000e+00 0.0000000000000000e+00 0.0000000000000000e+00  0.0000000000000000e+00 0.0000000000000000e+00 0.0000000000000000e+00  0.0000000000000000e+00 0.0000000000000000e+00 0.0000000000000000e+00  0.0000000000000000e+00 0.0000000000000000e+00 0.0000000000000000e+00  0.0000000000000000e+00 0.0000000000000000e+00 0.0000000000000000e+00  0.0000000000000000e+00 0.0000000000000000e+00 0.0000000000000000e+00  0.0000000000000000e+00 0.0000000000000000e+00 0.0000000000000000e+00  0.0000000000000000e+00 0.0000000000000000e+00 0.0000000000000000e+00  0.0000000000000000e+00 0.0000000000000000e+00 0.0000000000000000e+00  0.0000000000000000e+00 0.0000000000000000e+00 0.0000000000000000e+00  0.0000000000000000e+00 0.0000000000000000e+00 0.0000000000000000e+00  0.0000000000000000e+00 0.0000000000000000e+00 0.0000000000000000e+00  1.4001800421116504e+00 -4.9743984776056782e-01 0.0000000000000000e+00  1.8162504484135376e+00 9.9806963518188474e-01 0.0000000000000000e+00  1.4895698683603000e+00 -7.7547488580849561e-02 0.0000000000000000e+00  1.3732249241204806e+00 7.5794816134572818e-01 0.0000000000000000e+00  1.5980759212453615e+00 2.7907091387656981e-02 0.0000000000000000e+00  1.5000002104630552e+00 0.0000000000000000e+00 0.0000000000000000e+00  1.2410224923897488e+00 5.6872872113729898e-02 0.0000000000000000e+00  1.3598887430971933e+00 8.3341366113382820e-01 0.0000000000000000e+00  1.5000002104630552e+00 0.0000000000000000e+00 0.0000000000000000e+00  0.0000000000000000e+00 0.0000000000000000e+00 0.0000000000000000e+00  1.2459769627370192e+00 6.4149388436194754e-01 0.0000000000000000e+00  0.0000000000000000e+00 0.0000000000000000e+00 0.0000000000000000e+00  0.0000000000000000e+00 0.0000000000000000e+00 0.0000000000000000e+00  2.0389044364544548e+00 -7.5367884010980346e-01 0.0000000000000000e+00  0.0000000000000000e+00 0.0000000000000000e+00 0.0000000000000000e+00  0.0000000000000000e+00 0.0000000000000000e+00 0.0000000000000000e+00  0.0000000000000000e+00 0.0000000000000000e+00 0.0000000000000000e+00  1.7038204473030989e+00 -1.0468563227722050e+00 0.0000000000000000e+00  0.0000000000000000e+00 0.0000000000000000e+00 0.0000000000000000e+00  0.0000000000000000e+00 0.0000000000000000e+00 0.0000000000000000e+00  1.5271153993465219e+00 -3.8939313116041147e-01 0.0000000000000000e+00  0.0000000000000000e+00 0.0000000000000000e+00 0.0000000000000000e+00  0.0000000000000000e+00 0.0000000000000000e+00 0.0000000000000000e+00  0.0000000000000000e+00 0.0000000000000000e+00 0.0000000000000000e+00  0.0000000000000000e+00 0.0000000000000000e+00 0.0000000000000000e+00  0.0000000000000000e+00 0.0000000000000000e+00 0.0000000000000000e+00  0.0000000000000000e+00 0.0000000000000000e+00 0.0000000000000000e+00  0.0000000000000000e+00 0.0000000000000000e+00 0.0000000000000000e+00  1.3763557493538525e+00 4.9128329282865868e-02 0.0000000000000000e+00  1.3204597933010076e+00 -1.8119855617377767e-01 0.0000000000000000e+00  8.7528545007177294e-01 1.5695872186145093e-01 0.0000000000000000e+00  1.2865872284755941e+00 -8.4417730407714864e-01 0.0000000000000000e+00  9.2797160890100183e-01 4.9832996831341009e-01 0.0000000000000000e+00  1.1205448286917650e+00 -6.7147844520492128e-01 0.0000000000000000e+00  3.4792979656424738e-01 2.1766163437523653e-01 0.0000000000000000e+00  8.9652511201092600e-01 -8.2219328389561730e-01 0.0000000000000000e+00  5.5675876029933524e-01 9.3816957568981374e-01 0.0000000000000000e+00  1.1233155647596995e+00 -9.8584546397733286e-02 0.0000000000000000e+00  9.7575307476784945e-01 1.4932786492868123e-03 0.0000000000000000e+00  1.0437031676991226e+00 1.7262271497624392e-02 0.0000000000000000e+00  1.8946878077272691e+00 6.3561531956860773e-01 0.0000000000000000e+00  1.1250001578472915e+00 0.0000000000000000e+00 0.0000000000000000e+00  9.8102697339489198e-01 3.5373092066459022e-01 0.0000000000000000e+00  1.1404646181092966e+00 1.0278613044644673e-01 0.0000000000000000e+00  7.8566719201213830e-01 -4.7368346568926428e-01 0.0000000000000000e+00  1.4591571111428079e+00 -1.4158816926526248e+00 0.0000000000000000e+00  3.4779161672416881e-01 6.5856203385667900e-01 0.0000000000000000e+00  7.2796614028094198e-01 -5.9546344178657262e-01 0.0000000000000000e+00  9.2240756575738647e-01 3.7395448102974405e-01 0.0000000000000000e+00  1.6694898634938440e+00 1.6095327286862138e-01 0.0000000000000000e+00  9.0936475136160366e-01 -4.6389678002131618e-01 0.0000000000000000e+00  1.2394715864692731e+00 -9.5677207498153782e-01 0.0000000000000000e+00  1.5208322372056482e+00 7.3716722387086231e-01 0.0000000000000000e+00  1.3395609271451416e+00 1.1245598255384388e-02 0.0000000000000000e+00  1.0849254541157702e+00 7.6893226177047483e-02 0.0000000000000000e+00  1.2684709519374535e+00 5.2479009794234810e-02 0.0000000000000000e+00  1.2103034051202557e+00 -3.2078805548812955e-02 0.0000000000000000e+00  0.0000000000000000e+00 0.0000000000000000e+00 0.0000000000000000e+00  1.1512701925426208e+00 -2.5376062574685038e-01 0.0000000000000000e+00  1.1250001578472915e+00 0.0000000000000000e+00 0.0000000000000000e+00  7.6417813801708578e-01 -5.5544135864154565e-01 0.0000000000000000e+00  0.0000000000000000e+00 0.0000000000000000e+00 0.0000000000000000e+00  1.2484046975778078e+00 2.3311386113591605e-02 0.0000000000000000e+00  1.1349690774443895e+00 2.7743685332164125e-01 0.0000000000000000e+00  1.0822922303656232e-01 3.6889555142541408e-01 0.0000000000000000e+00  2.0649217294296132e+00 8.1713797727890924e-01 0.0000000000000000e+00  0.0000000000000000e+00 0.0000000000000000e+00 0.0000000000000000e+00  1.3934730028254843e+00 7.4087996964157077e-01 0.0000000000000000e+00  1.1250001578472915e+00 0.0000000000000000e+00 0.0000000000000000e+00  1.2845139462095998e+00 7.3316199216614730e-01 0.0000000000000000e+00  1.1250001578472915e+00 0.0000000000000000e+00 0.0000000000000000e+00  0.0000000000000000e+00 0.0000000000000000e+00 0.0000000000000000e+00  2.0168982358512935e+00 -5.3532237357967132e-02 0.0000000000000000e+00  1.8614957682210369e+00 -2.5219995886941965e-01 0.0000000000000000e+00  1.4983995336806732e+00 -4.3303800702110024e-01 0.0000000000000000e+00  0.0000000000000000e+00 0.0000000000000000e+00 0.0000000000000000e+00  3.1617557727273216e-01 6.0334297357517208e-01 0.0000000000000000e+00  1.6126572035192941e+00 1.3226567655281047e+00 0.0000000000000000e+00  2.0111782315280937e+00 -1.1098090799043083e+00 0.0000000000000000e+00  1.3512126846976074e+00 -2.4979307205841600e-01 0.0000000000000000e+00  1.5242293655799140e+00 -9.8195610442731285e-01 0.0000000000000000e+00  1.2888588703905670e+00 8.7666704518387872e-01 0.0000000000000000e+00  1.0453525303837836e+00 3.3306673008044752e-01 0.0000000000000000e+00  1.3286515471011409e+00 -1.0666245930161389e+00 0.0000000000000000e+00  1.6538511568556735e+00 6.6138081055254039e-01 0.0000000000000000e+00  1.2743990282678221e+00 2.4486367496426487e-01 0.0000000000000000e+00  1.4341491980630152e+00 -3.6968563715942798e-01 0.0000000000000000e+00  1.9159481836634704e+00 1.9962434843830290e-01 0.0000000000000000e+00  7.7225641252234434e-01 7.2056460188955063e-01 0.0000000000000000e+00  1.4068987838715856e+00 3.4718098217443971e-01 0.0000000000000000e+00  0.0000000000000000e+00 0.0000000000000000e+00 0.0000000000000000e+00  1.5080759550908849e+00 -5.1493190781776244e-01 0.0000000000000000e+00  0.0000000000000000e+00 0.0000000000000000e+00 0.0000000000000000e+00  0.0000000000000000e+00 0.0000000000000000e+00 0.0000000000000000e+00  0.0000000000000000e+00 0.0000000000000000e+00 0.0000000000000000e+00  0.0000000000000000e+00 0.0000000000000000e+00 0.0000000000000000e+00  0.0000000000000000e+00 0.0000000000000000e+00 0.0000000000000000e+00  0.0000000000000000e+00 0.0000000000000000e+00 0.0000000000000000e+00  0.0000000000000000e+00 0.0000000000000000e+00 0.0000000000000000e+00  0.0000000000000000e+00 0.0000000000000000e+00 0.0000000000000000e+00  1.2034404778099976e+00 2.9335447147530053e-01 0.0000000000000000e+00  0.0000000000000000e+00 0.0000000000000000e+00 0.0000000000000000e+00  0.0000000000000000e+00 0.0000000000000000e+00 0.0000000000000000e+00  0.0000000000000000e+00 0.0000000000000000e+00 0.0000000000000000e+00  0.0000000000000000e+00 0.0000000000000000e+00 0.0000000000000000e+00  0.0000000000000000e+00 0.0000000000000000e+00 0.0000000000000000e+00  0.0000000000000000e+00 0.0000000000000000e+00 0.0000000000000000e+00  0.0000000000000000e+00 0.0000000000000000e+00 0.0000000000000000e+00  0.0000000000000000e+00 0.0000000000000000e+00 0.0000000000000000e+00  0.0000000000000000e+00 0.0000000000000000e+00 0.0000000000000000e+00  0.0000000000000000e+00 0.0000000000000000e+00 0.0000000000000000e+00  0.0000000000000000e+00 0.0000000000000000e+00 0.0000000000000000e+00  0.0000000000000000e+00 0.0000000000000000e+00 0.0000000000000000e+00  0.0000000000000000e+00 0.0000000000000000e+00 0.0000000000000000e+00  0.0000000000000000e+00 0.0000000000000000e+00 0.0000000000000000e+00  0.0000000000000000e+00 0.0000000000000000e+00 0.0000000000000000e+00  0.0000000000000000e+00 0.0000000000000000e+00 0.0000000000000000e+00  0.0000000000000000e+00 0.0000000000000000e+00 0.0000000000000000e+00  0.0000000000000000e+00 0.0000000000000000e+00 0.0000000000000000e+00  1.2323102087643623e+00 1.9239402261847449e-02 0.0000000000000000e+00  2.3219283316982353e-01 4.7708235264109066e-03 0.0000000000000000e+00  9.0435147182122566e-01 2.9030725673905305e-01 0.0000000000000000e+00  1.4758806503759727e+00 -2.0415633803589597e-01 0.0000000000000000e+00  1.1572207614973424e+00 -3.5532221737504022e-01 0.0000000000000000e+00  6.4435064176592238e-01 -2.8317873390098908e-01 0.0000000000000000e+00  6.7609741151885261e-01 -1.4995049508273763e+00 0.0000000000000000e+00  9.4725221436290663e-01 6.5539185344501316e-02 0.0000000000000000e+00  1.3212431325243268e+00 -8.4670571474206591e-02 0.0000000000000000e+00  1.3961133577741487e+00 2.2802381266330773e-02 0.0000000000000000e+00  1.5623865208476566e+00 -6.6333088505053384e-01 0.0000000000000000e+00  1.2247314770763484e+00 -7.8750502292886229e-02 0.0000000000000000e+00  1.2521180248817845e+00 9.9654356051740625e-02 0.0000000000000000e+00  2.1661740384573371e+00 -6.7297600098862931e-01 0.0000000000000000e+00  4.4860271632340765e-01 1.7071128503204750e-02 0.0000000000000000e+00  1.2967553648656431e+00 -3.1734050038672729e-01 0.0000000000000000e+00  1.4022240849459153e+00 -3.0658581647736034e-04 0.0000000000000000e+00  1.8277120068000741e+00 -1.6816907418250390e-01 0.0000000000000000e+00  1.3807318281332526e+00 9.7801720303137239e-03 0.0000000000000000e+00  1.3673909538703717e+00 2.4388745009476690e-02 0.0000000000000000e+00  1.1658235407399316e+00 1.2585976828841436e-01 0.0000000000000000e+00  2.7848654770367698e-01 -1.0093528788312267e+00 0.0000000000000000e+00  7.5832591851147868e-01 -8.5285860728551752e-02 0.0000000000000000e+00  -9.9370416770311731e-01 -5.9511794833226488e-02 0.0000000000000000e+00  1.1051514261440947e+00 -2.7422289710494395e-02 0.0000000000000000e+00  2.0586846102235543e+00 1.0128539136971806e-01 0.0000000000000000e+00  1.9324316662418801e+00 3.4326501654597552e-01 0.0000000000000000e+00  8.6244967919019067e-01 2.4331905969520638e-02 0.0000000000000000e+00  8.6446072698164700e-01 6.5167078457034700e-03 0.0000000000000000e+00  9.4102717105135703e-01 -1.1168132948775090e-03 0.0000000000000000e+00  8.3391735207742701e-01 -9.6166709103554671e-03 0.0000000000000000e+00  2.0510924976367026e+00 5.8383541384080395e-01 0.0000000000000000e+00  2.1879697634879127e+00 4.7122378745918686e-01 0.0000000000000000e+00  1.7399864104703863e-01 -1.6050021182345529e+00 0.0000000000000000e+00  9.4924480714812753e-01 1.4864659216975960e-02 0.0000000000000000e+00  8.9822036442239450e-01 1.0226432762765308e-02 0.0000000000000000e+00  1.3197678746605528e+00 4.7656213030499622e-01 0.0000000000000000e+00  1.2238529250123968e+00 6.0964180886274799e-01 0.0000000000000000e+00  1.6810701587381736e+00 -9.7041126021249402e-01 0.0000000000000000e+00  1.6624327808187913e+00 -7.9156373018146553e-01 0.0000000000000000e+00  -3.2845386925177050e-01 -5.9008815862979935e-01 0.0000000000000000e+00  -1.7703593862166775e-01 4.3703917794985436e-01 0.0000000000000000e+00  1.2842791926795851e+00 1.3167944248161605e+00 0.0000000000000000e+00  3.8548747466109290e-01 -5.4090377172604420e-01 0.0000000000000000e+00  -4.3626266297162658e-01 -1.5070438724227420e-02 0.0000000000000000e+00  4.2159037724161946e-01 -3.2193076911933949e-01 0.0000000000000000e+00  5.9743874853013668e-01 4.4137160635185635e-01 0.0000000000000000e+00  7.0367058113063141e-01 -1.3530210043917845e-01 0.0000000000000000e+00  1.1876890116847061e+00 -5.1462162961826241e-01 0.0000000000000000e+00  6.5625009207758656e-01 0.0000000000000000e+00 0.0000000000000000e+00  8.5627036877525842e-01 -7.1964144842230652e-03 0.0000000000000000e+00  4.1511912456265099e-01 -5.3498854619742499e-02 0.0000000000000000e+00  6.8953646849761541e-01 3.1237189085640604e-02 0.0000000000000000e+00  9.6279988668116312e-01 1.1457690915446668e-01 0.0000000000000000e+00  8.3025239974431320e-01 2.5961756675640366e-03 0.0000000000000000e+00  1.5946652356808968e+00 5.6387154881693868e-01 0.0000000000000000e+00  1.0784221505100622e+00 3.7744995541087606e-01 0.0000000000000000e+00  1.3267565570529585e+00 1.5649383759315610e-01 0.0000000000000000e+00  1.8406245090886286e+00 2.5589620509005528e-01 0.0000000000000000e+00  1.2885134876656943e+00 1.8244045998883190e-01 0.0000000000000000e+00  9.8381964359227270e-01 -5.1818333449747060e-02 0.0000000000000000e+00  1.6727157505678656e+00 2.4401313081038303e-01 0.0000000000000000e+00  1.8259516920758032e+00 1.0236377483534143e+00 0.0000000000000000e+00  1.2480053376343405e+00 2.6651079897399782e-01 0.0000000000000000e+00  6.8002627299171203e-01 5.2626515995135383e-02 0.0000000000000000e+00  1.0080174482787438e+00 1.7009612147870912e-01 0.0000000000000000e+00  8.3038458219793720e-01 1.1365789335224328e+00 0.0000000000000000e+00  1.1778710299279751e+00 -1.8610184618710997e-02 0.0000000000000000e+00  1.3125594966087257e+00 -1.5881866746931522e-01 0.0000000000000000e+00  1.3175418571104878e+00 -5.5101616190463132e-01 0.0000000000000000e+00  8.6946653061700563e-01 -2.7953380912562376e-01 0.0000000000000000e+00  1.5071287589684890e+00 -8.3875055022917833e-01 0.0000000000000000e+00  1.4501083236464531e+00 -2.1013122549138653e-03 0.0000000000000000e+00  1.4411476145616160e+00 -1.9030450236862867e-02 0.0000000000000000e+00  8.9528569317194806e-01 3.2675076932046904e-01 0.0000000000000000e+00  1.3714236641479993e+00 -8.4002599124754362e-01 0.0000000000000000e+00  5.1654484775227705e-01 3.1692898276562270e-01 0.0000000000000000e+00  1.2993176303356799e+00 7.9299584395770462e-01 0.0000000000000000e+00  1.2125446570451108e+00 -7.6878226324888527e-02 0.0000000000000000e+00  1.2555570646597742e+00 2.0639695921767323e-01 0.0000000000000000e+00  1.5661886933870268e+00 3.6602202973368686e-01 0.0000000000000000e+00  9.1515549666871276e-01 1.1129809124006609e+00 0.0000000000000000e+00  1.1167745365079988e+00 -9.1394225815339930e-02 0.0000000000000000e+00  7.8157285277289745e-01 -7.9158235669254073e-01 0.0000000000000000e+00  1.4665071394333054e+00 9.9181381662479817e-01 0.0000000000000000e+00  2.0421897910079370e+00 -1.1923785882173919e-01 0.0000000000000000e+00  7.7626701287455646e-01 -1.4215766038779051e-01 0.0000000000000000e+00  1.0288752118141513e+00 1.3528751364207336e-01 0.0000000000000000e+00  -1.3007096981603977e-01 -5.7456458336820254e-02 0.0000000000000000e+00  1.8589290983004714e+00 -1.2246032268029556e+00 0.0000000000000000e+00  1.7933327693740106e+00 2.3344220132092713e-01 0.0000000000000000e+00  1.9703224460160149e+00 -3.1230903930944237e-01 0.0000000000000000e+00  1.2457165862475044e+00 -2.5267947950283278e-02 0.0000000000000000e+00  1.3814609630580730e+00 -7.2435441849077675e-01 0.0000000000000000e+00  5.2166875161241100e-01 -2.7818938622259537e-01 0.0000000000000000e+00  1.2099035228013966e-01 3.0667218554754805e-01 0.0000000000000000e+00  7.8420413532588273e-01 -3.0675752079338259e-01 0.0000000000000000e+00  8.3141301069035711e-01 -9.5724368201784504e-01 0.0000000000000000e+00  1.5769889285035823e+00 2.8409668808723409e-01 0.0000000000000000e+00  6.2158469959862983e-01 8.4163664579045297e-02 0.0000000000000000e+00  5.4964057272399669e-01 1.0411689910594313e-01 0.0000000000000000e+00  1.1625410337886584e+00 -3.1641874188404634e-01 0.0000000000000000e+00  1.0589294741697981e+00 1.7429436595970628e-03 0.0000000000000000e+00  1.1453674016815294e+00 2.0238582584371261e-02 0.0000000000000000e+00  1.6353850475668430e+00 1.0544274193149441e+00 0.000000000000000