<?xml version="1.0"?>
<VTKFile type="UnstructuredGrid"  version="0.1"  >
<UnstructuredGrid>
<Piece  NumberOfPoints="4269" NumberOfCells="8234">
<Points>
<DataArray  type="Float64"  NumberOfComponents="3"  format="ascii">0 1 0  0 0 0  7.5 0 0  7.5 1 0  1.197537668119028 0.5812868930080463 0  1.2 0.55 0  1.197537668119028 0.5187131069919538 0  1.190211303259031 0.4881966011250105 0  1.178201304837674 0.4592019000520907 0  1.161803398874989 0.4324429495415054 0  1.141421356237309 0.4085786437626905 0  1.117557050458495 0.3881966011250105 0  1.090798099947909 0.3717986951623264 0  1.06180339887499 0.3597886967409693 0  1.031286893008046 0.3524623318809725 0  1 0.35 0  0.9687131069919538 0.3524623318809725 0  0.9381966011250105 0.3597886967409694 0  0.9092019000520906 0.3717986951623264 0  0.8824429495415054 0.3881966011250105 0  0.8585786437626904 0.4085786437626905 0  0.8381966011250105 0.4324429495415054 0  0.8217986951623264 0.4592019000520907 0  0.8097886967409692 0.4881966011250107 0  0.8024623318809725 0.5187131069919539 0  0.8 0.55 0  0.8024623318809725 0.5812868930080463 0  0.8097886967409693 0.6118033988749896 0  0.8217986951623264 0.6407980999479095 0  0.8381966011250105 0.6675570504584947 0  0.8585786437626906 0.6914213562373096 0  0.8824429495415054 0.7118033988749896 0  0.9092019000520907 0.7282013048376736 0  0.9381966011250106 0.7402113032590307 0  0.9687131069919539 0.7475376681190276 0  1 0.75 0  1.031286893008046 0.7475376681190276 0  1.06180339887499 0.7402113032590307 0  1.090798099947909 0.7282013048376736 0  1.117557050458495 0.7118033988749896 0  1.141421356237309 0.6914213562373095 0  1.161803398874989 0.6675570504584947 0  1.178201304837674 0.6407980999479094 0  1.190211303259031 0.6118033988749896 0  3.75 0 0  3.75 1 0  1.875 0 0  1.875 1 0  0.9375 0 0  0.9375 1 0  1.40625 1 0  5.625 1 0  5.625 0 0  2.8125 1 0  2.8125 0 0  4.6875 0 0  4.6875 1 0  6.5625 0 0  6.5625 1 0  5.15625 0.5 0  4.21875 0.5 0  2.34375 0.5 0  3.28125 0.5 0  6.09375 0.5 0  7.5 0.5 0  6.897916666666666 0.5 0  1.842708333333333 0.5 0  0 0.5 0  0.46875 0 0  5.625 0.5302734375 0  7.03125 0 0  6.09375 1 0  2.8125 0.4697265625 0  3.28125 0 0  2.34375 1 0  2.34375 0 0  3.75 0.4697265625 0  4.21875 0 0  4.21875 1 0  4.6875 0.5302734375 0  3.28125 1 0  5.15625 0 0  6.09375 0 0  5.15625 1 0  0.46875 1 0  1.40625 0 0  7.03125 1 0  0.3954638734376499 0.5975780249976004 0  6.495833333333334 0.4072265624999998 0  5.859375 0.25 0  4.905729166666666 0.26513671875 0  4.453125 0.25 0  3.531770833333333 0.73486328125 0  3.968229166666667 0.73486328125 0  2.594270833333333 0.73486328125 0  3.030729166666667 0.73486328125 0  6.328125 0.75 0  7.198958333333334 0.3125000000000002 0  7.198958333333334 0.6874999999999998 0  5.390625 0.25 0  0 0.25 0  2.109375 0.75 0  2.109375 0.25 0  1.51921323205749 0.3418883887525936 0  1.522346610178253 0.6811769608297746 0  5.375456746419271 0.75 0  4.921875 0.76513671875 0  4.437956746419271 0.75 0  3.984375 0.23486328125 0  3.500456746419271 0.25 0  2.578125 0.23486328125 0  3.046875 0.23486328125 0  5.874543253580729 0.75 0  6.642123189445656 0.6909095493086836 0  6.746354166666666 0.2391688368055553 0  0.3197109619185111 0.2850049285972083 0  6.328125 0 0  0.6313375889370429 0.2351325552547357 0  0 0.75 0  6.252283381534729 0.2693808819694041 0  0.234375 1 0  6.948437500000001 0.7543055555555555 0  0.5934018769555939 0.7694151657947577 0  1.858854166666667 0.75 0  1.858854166666667 0.25 0  1.640625 0 0  2.093229166666667 0.5 0  7.5 0.25 0  3.282227579752604 0.75 0  7.5 0.75 0  1.171875 0 0  1.303539853147731 0.2235426933121065 0  5.148177083333333 0.2575683593749998 0  2.351822916666667 0.742431640625 0  1.640625 1 0  4.202380413457425 0.7645435094236485 0  3.047822985053062 0.4701848030090332 0  2.577177014946938 0.4701848030090332 0  4.672792740482199 0.76513671875 0  4.922822985053062 0.5298151969909668 0  5.390593497949761 0.5156244924311331 0  5.610292740482199 0.76513671875 0  3.516602579752604 0.5 0  4.45496853898097 0.4865915990446593 0  5.85753146101903 0.4865915990446593 0  3.749511210123698 0.23486328125 0  3.983397420247396 0.4999999999999999 0  2.343497975411212 0.2346270081980111 0  4.219002024588788 0.2346270081980111 0  0.703125 0 0  2.8125 0.2343755075688669 0  3.046875 0 0  2.578125 0 0  3.515625 0 0  3.984375 0 0  4.453125 1 0  5.390625 1 0  2.109375 0 0  2.109375 1 0  5.625 0.2921402030705575 0  5.390625 0 0  7.265625 0 0  6.796875 0 0  6.328125 1 0  3.046875 1 0  2.578125 1 0  3.984375 1 0  3.515625 1 0  4.453125 0 0  4.921875 0 0  5.859375 0 0  0.703125 1 0  1.171875 1 0  7.265625 1 0  4.921875 1 0  5.859375 1 0  0.234375 0 0  6.796875 1 0  6.980310975276531 0.2285890127127066 0  5.149170481934885 0.772689292163473 0  3.274170481934884 0.2273107078365268 0  6.101334126790364 0.7722468376159667 0  4.678005340872584 0.3000799877067239 0  2.8125 0.6921051326382495 0  3.75 0.6921051326382495 0  0.3515624999999999 0.8134571721668546 0  0.4990405774417521 0.4070099317153735 0  0.1789273931360182 0.625 0  6.31239060814315 0.5298877111157968 0  6.456979773992304 0.1917956348713352 0  6.699870808919271 0.4406293402777773 0  1.337539480965883 0.7944303676599538 0  6.058675797563041 0.2019812164653516 0  0.8203125 0.1643029084422534 0  0.1480856513011711 0.375 0  1.090769294689562 0.1719186776982972 0  7.291088163206459 0.5 0  7.094502414936563 0.5197902199074071 0  0.6046212059042245 0.5730066483871106 0  1.707231580809486 0.6342709161352207 0  1.685961352504593 0.8193269193390785 0  1.374721602852827 0.4600373025865813 0  6.486415510043844 0.5916440776477192 0  1.5234375 0.1508863828685116 0  1.707925830421689 0.3657739208189008 0  0.1674513225045584 0.8278776664019765 0  7.138268756771176 0.1438183366439137 0  7.1484375 0.8616388888888887 0  7.328562530764119 0.819498462930605 0  4.101073710123698 0.3678637200736647 0  1.693878467219965 0.1911955120941053 0  1.577566745468488 0.5110082404081502 0  6.6796875 0.8653871806883484 0  6.498039504430512 0.825568433346395 0  0.7562556668576472 0.8333197949571929 0  4.101045914668806 0.6255195807449272 0  5.030745188395182 0.382829047309028 0  2.476364945868651 0.6095868094762166 0  2.729359843907322 0.8460525663191247 0  2.9296875 0.8740763101564099 0  3.163518307559356 0.6254622797994247 0  3.666859843907322 0.8460525663191247 0  3.8671875 0.8740763101564099 0  4.8046875 0.12592368984359 0  3.14936031382311 0.8606990583876851 0  2.4609375 0.8747622921397776 0  5.023140791101972 0.1392266772452574 0  0 0.125 0  0.1759922923594607 0.1727589856739889 0  4.5703125 0.125 0  7.327755777818006 0.1766156770456191 0  5.5078125 0.125 0  5.719712725029036 0.1460701015352787 0  4.327848962028002 0.3674169956512513 0  5.982681121544351 0.3692637923021713 0  3.398926289876302 0.6245417594909667 0  5.281756792511996 0.3827993367299961 0  2.226822645963271 0.6252438868405666 0  2.234390064317166 0.8676616584526566 0  5.2734375 0.125 0  1.96796875 0.382568359375 0  2.234651037971999 0.3674169956512511 0  1.984114583333333 0.132568359375 0  1.9921875 0.875 0  1.984114583333333 0.632568359375 0  5.748733794462357 0.8678269127183313 0  3.3984375 0.875456329184688 0  1.512925924995415 0.8582958012121853 0  1.359299372802969 0.6275861864990343 0  4.810521420483513 0.4041767793635395 0  0.2996213306116602 0.455339710363317 0  5.999933717403708 0.6388425470751088 0  5.250033449003657 0.6388713364551682 0  3.631676045992918 0.3525406652400928 0  4.3359375 0.8816499670325881 0  4.343577437052484 0.6116511299909198 0  3.375033449003656 0.3611286635448316 0  5.763152151652243 0.6249404690537395 0  4.549347848347757 0.6249404690537396 0  5.5004588702411 0.6403667365776566 0  5.976118394847484 0.8816230218343086 0  5.054722486865804 0.6338007028640954 0  3.164542163493752 0.3520519332736524 0  2.445407482032355 0.3672168403687257 0  4.8046875 0.882568359375 0  4.1015625 0.117431640625 0  2.4609375 0.117431640625 0  2.695556894938151 0.3520510350344335 0  2.929443105061849 0.3520510350344335 0  3.881979231817319 0.3670559016511187 0  3.8671875 0.117431640625 0  4.805389247695744 0.6470047893641744 0  3.399370721942191 0.1184066543556767 0  5.274370721942192 0.881593345644323 0  3.618253274934649 0.1316869186284249 0  2.6953125 0.1171877537844335 0  2.9296875 0.1171877537844335 0  2.21873344389451 0.125 0  4.3359375 0.1171877625080073 0  0.6659898565672709 0.3986593551313873 0  7.363359022954956 0.3481046411219251 0  7.363359022954956 0.6518953588780749 0  5.487719392831826 0.3828237631077121 0  2.695054578344725 0.5809158475691247 0  2.944553877887707 0.5964065668438148 0  0.3515625 0.1201898858097106 0  5.5078125 1 0  4.5703125 1 0  5.031746201297604 0.882568359375 0  3.1640625 0 0  6.2109375 1 0  6.186845385763124 0.6336356480571081 0  4.1015625 1 0  6.810399074069772 0.6495574751396682 0  0.4740615253480797 0.2509287743856873 0  7.052064303830151 0.3684417917792242 0  6.195177069665382 0.1216488332168849 0  5.72300154718324 0.4112068202852788 0  3.879157465495092 0.6111892850691246 0  3.645760045247695 0.5809158475691247 0  6.868257400485771 0.3427840810237202 0  6.612030892260864 0.1521752713064389 0  6.615666885941117 0.3151079644097221 0  4.04296875 0.8633718902669071 0  1.183031453639096 0.8486801864185936 0  6.9140625 0 0  6.859079526500421 0.1398292786950638 0  6.808232443325651 0.7957411753922057 0  6.9140625 1 0  4.544955211100143 0.3675874343205077 0  1.0546875 1 0  6.122060236165557 0.3316791557072867 0  0.5859375 0 0  5.9765625 0 0  5.44921875 0.870984788733638 0  4.51171875 0.870984788733638 0  0.7608354256382215 0.2931261274224557 0  6.386875332239937 0.3156583003094978 0  6.985654756850997 0.6147408423643147 0  6.223797257919172 0.8535621912121121 0  5.936822413218736 0.1338376546337823 0  6.23933008800134 0.4095573603773768 0  0.5414022462152697 0.1305482677949959 0  6.331360438104348 0.1370086318183389 0  0.956404929269873 0.1374266563647954 0  1.2890625 1 0  0.691305981127761 0.6764829884281737 0  3.531251607241209 0.8678916320952239 0  2.59787442813022 
[...]
<PointData  Vectors="f_71627"> 
<DataArray  type="Float64"  Name="f_71627"  NumberOfComponents="3" format="ascii">0.0000000000000000e+00 0.0000000000000000e+00 0.0000000000000000e+00  0.0000000000000000e+00 0.0000000000000000e+00 0.0000000000000000e+00  0.0000000000000000e+00 0.0000000000000000e+00 0.0000000000000000e+00  0.0000000000000000e+00 0.0000000000000000e+00 0.0000000000000000e+00  0.0000000000000000e+00 0.0000000000000000e+00 0.0000000000000000e+00  0.0000000000000000e+00 0.0000000000000000e+00 0.0000000000000000e+00  0.0000000000000000e+00 0.0000000000000000e+00 0.0000000000000000e+00  0.0000000000000000e+00 0.0000000000000000e+00 0.0000000000000000e+00  0.0000000000000000e+00 0.0000000000000000e+00 0.0000000000000000e+00  0.0000000000000000e+00 0.0000000000000000e+00 0.0000000000000000e+00  0.0000000000000000e+00 0.0000000000000000e+00 0.0000000000000000e+00  0.0000000000000000e+00 0.0000000000000000e+00 0.0000000000000000e+00  0.0000000000000000e+00 0.0000000000000000e+00 0.0000000000000000e+00  0.0000000000000000e+00 0.0000000000000000e+00 0.0000000000000000e+00  0.0000000000000000e+00 0.0000000000000000e+00 0.0000000000000000e+00  0.0000000000000000e+00 0.0000000000000000e+00 0.0000000000000000e+00  0.0000000000000000e+00 0.0000000000000000e+00 0.0000000000000000e+00  0.0000000000000000e+00 0.0000000000000000e+00 0.0000000000000000e+00  0.0000000000000000e+00 0.0000000000000000e+00 0.0000000000000000e+00  0.0000000000000000e+00 0.0000000000000000e+00 0.0000000000000000e+00  0.0000000000000000e+00 0.0000000000000000e+00 0.0000000000000000e+00  0.0000000000000000e+00 0.0000000000000000e+00 0.0000000000000000e+00  0.0000000000000000e+00 0.0000000000000000e+00 0.0000000000000000e+00  0.0000000000000000e+00 0.0000000000000000e+00 0.0000000000000000e+00  0.0000000000000000e+00 0.0000000000000000e+00 0.0000000000000000e+00  0.0000000000000000e+00 0.0000000000000000e+00 0.0000000000000000e+00  0.0000000000000000e+00 0.0000000000000000e+00 0.0000000000000000e+00  0.0000000000000000e+00 0.0000000000000000e+00 0.0000000000000000e+00  0.0000000000000000e+00 0.0000000000000000e+00 0.0000000000000000e+00  0.0000000000000000e+00 0.0000000000000000e+00 0.0000000000000000e+00  0.0000000000000000e+00 0.0000000000000000e+00 0.0000000000000000e+00  0.0000000000000000e+00 0.0000000000000000e+00 0.0000000000000000e+00  0.0000000000000000e+00 0.0000000000000000e+00 0.0000000000000000e+00  0.0000000000000000e+00 0.0000000000000000e+00 0.0000000000000000e+00  0.0000000000000000e+00 0.0000000000000000e+00 0.0000000000000000e+00  0.0000000000000000e+00 0.0000000000000000e+00 0.0000000000000000e+00  0.0000000000000000e+00 0.0000000000000000e+00 0.0000000000000000e+00  0.0000000000000000e+00 0.0000000000000000e+00 0.0000000000000000e+00  0.0000000000000000e+00 0.0000000000000000e+00 0.0000000000000000e+00  0.0000000000000000e+00 0.0000000000000000e+00 0.0000000000000000e+00  0.0000000000000000e+00 0.0000000000000000e+00 0.0000000000000000e+00  0.0000000000000000e+00 0.0000000000000000e+00 0.0000000000000000e+00  0.0000000000000000e+00 0.0000000000000000e+00 0.0000000000000000e+00  0.0000000000000000e+00 0.0000000000000000e+00 0.0000000000000000e+00  0.0000000000000000e+00 0.0000000000000000e+00 0.0000000000000000e+00  0.0000000000000000e+00 0.0000000000000000e+00 0.0000000000000000e+00  0.0000000000000000e+00 0.0000000000000000e+00 0.0000000000000000e+00  0.0000000000000000e+00 0.0000000000000000e+00 0.0000000000000000e+00  0.0000000000000000e+00 0.0000000000000000e+00 0.0000000000000000e+00  0.0000000000000000e+00 0.0000000000000000e+00 0.0000000000000000e+00  0.0000000000000000e+00 0.0000000000000000e+00 0.0000000000000000e+00  0.0000000000000000e+00 0.0000000000000000e+00 0.0000000000000000e+00  0.0000000000000000e+00 0.0000000000000000e+00 0.0000000000000000e+00  0.0000000000000000e+00 0.0000000000000000e+00 0.0000000000000000e+00  0.0000000000000000e+00 0.0000000000000000e+00 0.0000000000000000e+00  0.0000000000000000e+00 0.0000000000000000e+00 0.0000000000000000e+00  0.0000000000000000e+00 0.0000000000000000e+00 0.0000000000000000e+00  0.0000000000000000e+00 0.0000000000000000e+00 0.0000000000000000e+00  0.0000000000000000e+00 0.0000000000000000e+00 0.0000000000000000e+00  1.2259980516685747e+00 4.4639303745781800e-01 0.0000000000000000e+00  1.6241295997696845e+00 -8.9194897235831538e-01 0.0000000000000000e+00  2.2006336584706432e+00 -1.6684812101064870e-04 0.0000000000000000e+00  2.0764180697071080e+00 -9.0034885509013252e-01 0.0000000000000000e+00  1.2193659397951733e+00 1.9933063367660375e-02 0.0000000000000000e+00  1.5000002289506484e+00 0.0000000000000000e+00 0.0000000000000000e+00  1.2323996668415207e+00 3.9500378166284853e-03 0.0000000000000000e+00  1.4877927915062827e+00 -4.4769454380330997e-01 0.0000000000000000e+00  1.5000002289506484e+00 0.0000000000000000e+00 0.0000000000000000e+00  0.0000000000000000e+00 0.0000000000000000e+00 0.0000000000000000e+00  1.5869831402166725e+00 -7.0049902082106685e-01 0.0000000000000000e+00  0.0000000000000000e+00 0.0000000000000000e+00 0.0000000000000000e+00  0.0000000000000000e+00 0.0000000000000000e+00 0.0000000000000000e+00  1.4512101072726291e+00 -1.7156254817415645e-01 0.0000000000000000e+00  0.0000000000000000e+00 0.0000000000000000e+00 0.0000000000000000e+00  0.0000000000000000e+00 0.0000000000000000e+00 0.0000000000000000e+00  0.0000000000000000e+00 0.0000000000000000e+00 0.0000000000000000e+00  1.6528263028261165e+00 9.0948282529154312e-01 0.0000000000000000e+00  0.0000000000000000e+00 0.0000000000000000e+00 0.0000000000000000e+00  0.0000000000000000e+00 0.0000000000000000e+00 0.0000000000000000e+00  1.2682612588769506e+00 3.5353998823385063e-01 0.0000000000000000e+00  0.0000000000000000e+00 0.0000000000000000e+00 0.0000000000000000e+00  0.0000000000000000e+00 0.0000000000000000e+00 0.0000000000000000e+00  0.0000000000000000e+00 0.0000000000000000e+00 0.0000000000000000e+00  0.0000000000000000e+00 0.0000000000000000e+00 0.0000000000000000e+00  0.0000000000000000e+00 0.0000000000000000e+00 0.0000000000000000e+00  0.0000000000000000e+00 0.0000000000000000e+00 0.0000000000000000e+00  0.0000000000000000e+00 0.0000000000000000e+00 0.0000000000000000e+00  1.3590921659208983e+00 -6.1165932435140853e-02 0.0000000000000000e+00  1.1964521870375231e+00 1.1999836672779068e-02 0.0000000000000000e+00  1.0807170816465095e+00 -4.9735298164546346e-02 0.0000000000000000e+00  1.3753602250719199e+00 4.3442596287950436e-01 0.0000000000000000e+00  1.6089811552209068e+00 -6.8681494148765576e-01 0.0000000000000000e+00  2.5232908859217523e-01 5.1357913191047844e-01 0.0000000000000000e+00  1.1736847225543832e+00 1.8049342343111738e-01 0.0000000000000000e+00  6.5219609727038352e-01 1.0523540977880192e+00 0.0000000000000000e+00  9.5082084485091245e-01 -6.6345135686710699e-01 0.0000000000000000e+00  1.1456894246759801e+00 2.0317221256540757e-02 0.0000000000000000e+00  9.3830175276070471e-01 -2.6851920500330488e-03 0.0000000000000000e+00  1.0368615937994496e+00 1.1536867570492373e-02 0.0000000000000000e+00  7.3429573191135200e-01 1.8973443892354128e-01 0.0000000000000000e+00  1.1250001717129865e+00 0.0000000000000000e+00 0.0000000000000000e+00  3.3449009508395128e-01 -5.1076131543584313e-01 0.0000000000000000e+00  1.2841430776747507e+00 -5.3110862974408724e-01 0.0000000000000000e+00  1.6617837918968914e+00 1.0343995164973461e+00 0.0000000000000000e+00  1.7510075283639878e-01 3.3659338894750102e-01 0.0000000000000000e+00  1.3518056933483036e+00 3.1248477242704253e-02 0.0000000000000000e+00  6.6965525261427228e-01 5.1277027448136314e-01 0.0000000000000000e+00  4.2220433461837986e-01 -7.9686734354845845e-01 0.0000000000000000e+00  7.9637667655015232e-01 2.0053381212959204e-01 0.0000000000000000e+00  1.5674049735629807e+00 1.2490553066971447e-01 0.0000000000000000e+00  9.7997957934302682e-01 3.6957654143265051e-01 0.0000000000000000e+00  1.5760878583960363e+00 -4.2002434980346603e-01 0.0000000000000000e+00  1.0293973755374626e+00 5.3905606396342474e-02 0.0000000000000000e+00  1.1560610895446948e+00 4.9276703567870794e-03 0.0000000000000000e+00  1.1613334013058063e+00 -9.3546006584714434e-03 0.0000000000000000e+00  1.2415212762183798e+00 -1.1016515588066987e-01 0.0000000000000000e+00  0.0000000000000000e+00 0.0000000000000000e+00 0.0000000000000000e+00  1.2937953268050963e+00 -3.2584291673664023e-01 0.0000000000000000e+00  1.1250001717129865e+00 0.0000000000000000e+00 0.0000000000000000e+00  1.1884707899723581e+00 8.5594898339355126e-03 0.0000000000000000e+00  0.0000000000000000e+00 0.0000000000000000e+00 0.0000000000000000e+00  1.2821470594562594e+00 1.2595438993518841e-03 0.0000000000000000e+00  1.0001706165759610e+00 1.7867485454037946e-01 0.0000000000000000e+00  1.6621079356835771e+00 -8.9818636921393979e-01 0.0000000000000000e+00  2.6471339711830222e-01 -2.3781188212837711e-02 0.0000000000000000e+00  0.0000000000000000e+00 0.0000000000000000e+00 0.0000000000000000e+00  1.8289614449689862e+00 -1.1421467210595102e+00 0.0000000000000000e+00  1.1250001717129865e+00 0.0000000000000000e+00 0.0000000000000000e+00  2.5663481390845333e-01 -6.7804684229047540e-01 0.0000000000000000e+00  1.1250001717129865e+00 0.0000000000000000e+00 0.0000000000000000e+00  0.0000000000000000e+00 0.0000000000000000e+00 0.0000000000000000e+00  2.0905788081673164e+00 3.7488409314088200e-01 0.0000000000000000e+00  1.0605081162831052e+00 1.1632999240230375e-01 0.0000000000000000e+00  -2.2099249636735607e-01 1.0651765533247037e-01 0.0000000000000000e+00  0.0000000000000000e+00 0.0000000000000000e+00 0.0000000000000000e+00  1.1137154116566914e+00 -3.9548049123170759e-01 0.0000000000000000e+00  1.6345271717813812e+00 -7.0854824756967727e-01 0.0000000000000000e+00  2.0923544681402664e+00 1.7552869223886360e+00 0.0000000000000000e+00  2.1408690356023152e-01 2.7135217710538462e-01 0.0000000000000000e+00  1.3203888714812622e+00 8.5310105721309426e-01 0.0000000000000000e+00  1.3509266019415080e+00 4.7109255527513932e-01 0.0000000000000000e+00  1.3806379032952423e+00 -3.3248755133824182e-01 0.0000000000000000e+00  2.2522944411485160e+00 4.5648488858691005e-01 0.0000000000000000e+00  1.5065813726141470e+00 -1.0720141279725501e+00 0.0000000000000000e+00  1.4173684587660476e+00 -1.0804399201358209e-01 0.0000000000000000e+00  1.4323577554746905e+00 6.0633256967455651e-01 0.0000000000000000e+00  1.4121515752858371e+00 3.7381263036528534e-01 0.0000000000000000e+00  1.9771033509599250e+00 5.1638395720705732e-01 0.0000000000000000e+00  7.6045990739451952e-01 -5.2501880839062798e-01 0.0000000000000000e+00  0.0000000000000000e+00 0.0000000000000000e+00 0.0000000000000000e+00  1.2080142522053574e+00 2.3993050721863976e-01 0.0000000000000000e+00  0.0000000000000000e+00 0.0000000000000000e+00 0.0000000000000000e+00  0.0000000000000000e+00 0.0000000000000000e+00 0.0000000000000000e+00  0.0000000000000000e+00 0.0000000000000000e+00 0.0000000000000000e+00  0.0000000000000000e+00 0.0000000000000000e+00 0.0000000000000000e+00  0.0000000000000000e+00 0.0000000000000000e+00 0.0000000000000000e+00  0.0000000000000000e+00 0.0000000000000000e+00 0.0000000000000000e+00  0.0000000000000000e+00 0.0000000000000000e+00 0.0000000000000000e+00  0.0000000000000000e+00 0.0000000000000000e+00 0.0000000000000000e+00  6.5422664018866805e-01 -3.2981418289972886e-01 0.0000000000000000e+00  0.0000000000000000e+00 0.0000000000000000e+00 0.0000000000000000e+00  0.0000000000000000e+00 0.0000000000000000e+00 0.0000000000000000e+00  0.0000000000000000e+00 0.0000000000000000e+00 0.0000000000000000e+00  0.0000000000000000e+00 0.0000000000000000e+00 0.0000000000000000e+00  0.0000000000000000e+00 0.0000000000000000e+00 0.0000000000000000e+00  0.0000000000000000e+00 0.0000000000000000e+00 0.0000000000000000e+00  0.0000000000000000e+00 0.0000000000000000e+00 0.0000000000000000e+00  0.0000000000000000e+00 0.0000000000000000e+00 0.0000000000000000e+00  0.0000000000000000e+00 0.0000000000000000e+00 0.0000000000000000e+00  0.0000000000000000e+00 0.0000000000000000e+00 0.0000000000000000e+00  0.0000000000000000e+00 0.0000000000000000e+00 0.0000000000000000e+00  0.0000000000000000e+00 0.0000000000000000e+00 0.0000000000000000e+00  0.0000000000000000e+00 0.0000000000000000e+00 0.0000000000000000e+00  0.0000000000000000e+00 0.0000000000000000e+00 0.0000000000000000e+00  0.0000000000000000e+00 0.0000000000000000e+00 0.0000000000000000e+00  0.0000000000000000e+00 0.0000000000000000e+00 0.0000000000000000e+00  0.0000000000000000e+00 0.0000000000000000e+00 0.0000000000000000e+00  0.0000000000000000e+00 0.0000000000000000e+00 0.0000000000000000e+00  1.1941307385086717e+00 -2.7868683497498579e-04 0.0000000000000000e+00  1.0573229487839138e+00 2.3703674419560919e-01 0.0000000000000000e+00  1.4286613231999450e+00 -4.9007290122130032e-01 0.0000000000000000e+00  1.0630580104190146e+00 6.7758673213649728e-02 0.0000000000000000e+00  2.0340605379532248e+00 3.7569395593770444e-01 0.0000000000000000e+00  1.3810843329733498e+00 1.3930501014017752e-02 0.0000000000000000e+00  7.8046502819116781e-01 1.2484639717034791e+00 0.0000000000000000e+00  8.8673805339690659e-01 3.1842187985222908e-03 0.0000000000000000e+00  1.3702501124117010e+00 -2.0991772622662716e-01 0.0000000000000000e+00  1.3931096645268513e+00 -3.2808257382163204e-02 0.0000000000000000e+00  1.1582379411205139e+00 1.7876856531001472e-02 0.0000000000000000e+00  1.1678253388577420e+00 3.6817092502980705e-03 0.0000000000000000e+00  1.2195211821604930e+00 -5.2905552297043985e-03 0.0000000000000000e+00  1.7690021306297499e+00 -1.3042278666122942e-01 0.0000000000000000e+00  1.1553724383219712e+00 3.5892928958314960e-02 0.0000000000000000e+00  1.5182879369838063e+00 -3.3537336932139439e-01 0.0000000000000000e+00  1.4052707723439337e+00 -4.2453455525348620e-02 0.0000000000000000e+00  2.0183840784004152e+00 -1.5803460333689491e-02 0.0000000000000000e+00  1.3840768885370798e+00 3.9143890392688138e-03 0.0000000000000000e+00  1.3731063149413250e+00 2.1463993027256508e-03 0.0000000000000000e+00  1.1366060358099312e+00 -3.4877453742119792e-02 0.0000000000000000e+00  1.2949277554158298e+00 -8.0012736887850072e-02 0.0000000000000000e+00  1.8823592905302189e+00 -5.7367879907014363e-01 0.0000000000000000e+00  8.8939184393043225e-01 2.8744568755336514e-01 0.0000000000000000e+00  1.1704812799968491e+00 6.8340276376919664e-03 0.0000000000000000e+00  1.3390630179816092e+00 3.0732229144021139e-01 0.0000000000000000e+00  8.8375747697037110e-01 6.8495885659735556e-01 0.0000000000000000e+00  8.4725205032111872e-01 -1.3364139156865351e-02 0.0000000000000000e+00  8.7202396523446324e-01 1.4997343987936331e-03 0.0000000000000000e+00  9.6604981507506327e-01 4.1994269859162175e-05 0.0000000000000000e+00  8.3064272184977961e-01 -7.1012508176659774e-03 0.0000000000000000e+00  1.1934969657459829e+00 1.2873391143873289e-01 0.0000000000000000e+00  9.5824117419671895e-01 1.5875799906752133e-01 0.0000000000000000e+00  5.6057789456988294e-01 1.4216831987386744e+00 0.0000000000000000e+00  1.0271960020941557e+00 3.0035698189887685e-03 0.0000000000000000e+00  1.0410517028859780e+00 -6.8727616754556574e-03 0.0000000000000000e+00  1.0745508048268240e+00 3.8851306985790268e-01 0.0000000000000000e+00  1.4547545556006636e+00 -1.6688464556693236e-01 0.0000000000000000e+00  1.3437498710196893e+00 4.3897885679098742e-01 0.0000000000000000e+00  1.2214682790194213e+00 1.0565050583207563e+00 0.0000000000000000e+00  1.0635901208646159e+00 1.1437545395115663e-01 0.0000000000000000e+00  8.5983400459118331e-01 2.7406819182351227e-02 0.0000000000000000e+00  1.2351637186965125e+00 -9.9523296471243661e-01 0.0000000000000000e+00  5.5950682344428335e-02 7.4094845248856045e-01 0.0000000000000000e+00  1.1520194740711098e+00 1.3584543467686849e-01 0.0000000000000000e+00  1.1534891496435440e+00 1.9450407385042498e-01 0.0000000000000000e+00  2.7036191631739326e-01 -4.5020084197412308e-01 0.0000000000000000e+00  4.7506481360394461e-02 3.2208171126105645e-01 0.0000000000000000e+00  8.8929759534727570e-01 5.5271211987121351e-02 0.0000000000000000e+00  6.5625010016590890e-01 0.0000000000000000e+00 0.0000000000000000e+00  8.6879678513602288e-01 -4.1397790516152090e-02 0.0000000000000000e+00  1.5989865745881902e+00 9.3113396914298305e-02 0.0000000000000000e+00  6.6556503733680106e-01 2.6037941537229822e-02 0.0000000000000000e+00  6.6827302244406861e-01 -2.6071511538682535e-02 0.0000000000000000e+00  8.5604103182100122e-01 -5.9578284005809432e-02 0.0000000000000000e+00  1.4405294548761878e+00 -1.3572513881982688e+00 0.0000000000000000e+00  1.1919244482872589e+00 -2.5078356872158685e-02 0.0000000000000000e+00  1.1484007825311213e+00 -3.4479293538873740e-01 0.0000000000000000e+00  1.0355040310074235e+00 3.7531261765840673e-01 0.0000000000000000e+00  1.1236742771847188e+00 -7.3483628630123632e-01 0.0000000000000000e+00  -1.5146924362664371e-01 -1.3678601644454341e-01 0.0000000000000000e+00  7.5965180764551443e-01 2.2748722597701689e-02 0.0000000000000000e+00  1.1718093732485853e+00 -1.3615812062950454e+00 0.0000000000000000e+00  1.7732661937632217e+00 -2.6840784752321339e-01 0.0000000000000000e+00  1.1127900226121070e+00 -2.6721881374439532e-01 0.0000000000000000e+00  3.1284399842278532e-01 6.8169057652881546e-02 0.0000000000000000e+00  1.8536043478305875e+00 -1.2138041916778404e+00 0.0000000000000000e+00  8.6215514533483328e-01 -3.1768250958720359e-03 0.0000000000000000e+00  -2.7739843369053829e-01 -1.7601535855383421e-01 0.0000000000000000e+00  1.8919385750169664e+00 -2.8016084663813579e-01 0.0000000000000000e+00  -1.2346846739386341e+00 -8.0636281751446978e-02 0.0000000000000000e+00  1.7787444931722265e+00 8.6641761038117382e-01 0.0000000000000000e+00  1.4606952702664175e+00 -9.4631365368204851e-02 0.0000000000000000e+00  1.1866085726793227e+00 5.1939832367167219e-02 0.0000000000000000e+00  1.2741726447364414e+00 3.5732644877146780e-01 0.0000000000000000e+00  1.5703062748631205e+00 4.3499128502542633e-01 0.0000000000000000e+00  3.5092505195586932e-01 -1.4429396182982190e-01 0.0000000000000000e+00  1.2320838809514989e+00 -1.1767625855884700e+00 0.0000000000000000e+00  1.9713396475062326e+00 -2.9397317064272815e-01 0.0000000000000000e+00  1.3682114165860602e+00 -3.4091230853686322e-01 0.0000000000000000e+00  8.2723075113459688e-01 -5.9268363854705020e-01 0.0000000000000000e+00  1.6484061993133936e+00 -5.7104378863058372e-02 0.0000000000000000e+00  8.5052704544913149e-01 2.4555286890183568e-02 0.0000000000000000e+00  1.1527247528977560e+00 5.4693927567106404e-01 0.0000000000000000e+00  1.7346901856319603e+00 -6.6082668462611271e-01 0.0000000000000000e+00  1.9758896155985701e+00 7.2605841271401828e-01 0.0000000000000000e+00  1.7176111049942069e-01 4.0043093283371400e-01 0.0000000000000000e+00  2.5848033931508896e-01 7.7829072782110958e-02 0.0000000000000000e+00  8.6964306970691529e-01 1.1624404439794854e-01 0.0000000000000000e+00  1.0569534135484975e+00 3.6301579046754107e-01 0.0000000000000000e+00  1.3597678963702293e+00 -2.6850155708089740e-01 0.0000000000000000e+00  1.4109584327978133e+00 7.0288308755459505e-01 0.0000000000000000e+00  5.8428476200860158e-01 -7.7385526470495070e-02 0.0000000000000000e+00  9.0119433108186831e-01 7.8259206875433951e-01 0.0000000000000000e+00  1.0909145768211841e+00 -2.0367192946135973e-01 0.0000000000000000e+00  1.2593258604958455e+00 -1.0267455145879571e-01 0.0000000000000000e+00  1.3282482716198813e+00 3.0356799828424808e-01 0.0000000000000000e+00  2.1013909792263703e-02 3.3429796025414715e-01 0.0000000000000000e+00  2.2718345883801264e-01 6.7498017185058698e-02 0.0000000000000000e+00  1.6516990324554126e+00 1.5029973778909117e-01 0.0000000000000000e+00  5.7692618920843086e-01 -4.7708482039245895e-02 0.0000000000000000e+00  1.2622154063841455e+00 -4.6517643986805118e-01 0.0000000000000000e+00  1.0376250004828593e+00 -2.8741982879294660e-03 0.0000000000000000e+00  1.1326480383618682e+00 6.9782499877159149e-03 0.0000000000000000e+00  8.6428291579235361e-01 -7.9861917500751861e-02 0.000000000000000