<?xml version="1.0"?>
<VTKFile type="UnstructuredGrid"  version="0.1"  >
<UnstructuredGrid>
<Piece  NumberOfPoints="4269" NumberOfCells="8234">
<Points>
<DataArray  type="Float64"  NumberOfComponents="3"  format="ascii">0 1 0  0 0 0  7.5 0 0  7.5 1 0  1.197537668119028 0.5812868930080463 0  1.2 0.55 0  1.197537668119028 0.5187131069919538 0  1.190211303259031 0.4881966011250105 0  1.178201304837674 0.4592019000520907 0  1.161803398874989 0.4324429495415054 0  1.141421356237309 0.4085786437626905 0  1.117557050458495 0.3881966011250105 0  1.090798099947909 0.3717986951623264 0  1.06180339887499 0.3597886967409693 0  1.031286893008046 0.3524623318809725 0  1 0.35 0  0.9687131069919538 0.3524623318809725 0  0.9381966011250105 0.3597886967409694 0  0.9092019000520906 0.3717986951623264 0  0.8824429495415054 0.3881966011250105 0  0.8585786437626904 0.4085786437626905 0  0.8381966011250105 0.4324429495415054 0  0.8217986951623264 0.4592019000520907 0  0.8097886967409692 0.4881966011250107 0  0.8024623318809725 0.5187131069919539 0  0.8 0.55 0  0.8024623318809725 0.5812868930080463 0  0.8097886967409693 0.6118033988749896 0  0.8217986951623264 0.6407980999479095 0  0.8381966011250105 0.6675570504584947 0  0.8585786437626906 0.6914213562373096 0  0.8824429495415054 0.7118033988749896 0  0.9092019000520907 0.7282013048376736 0  0.9381966011250106 0.7402113032590307 0  0.9687131069919539 0.7475376681190276 0  1 0.75 0  1.031286893008046 0.7475376681190276 0  1.06180339887499 0.7402113032590307 0  1.090798099947909 0.7282013048376736 0  1.117557050458495 0.7118033988749896 0  1.141421356237309 0.6914213562373095 0  1.161803398874989 0.6675570504584947 0  1.178201304837674 0.6407980999479094 0  1.190211303259031 0.6118033988749896 0  3.75 0 0  3.75 1 0  1.875 0 0  1.875 1 0  0.9375 0 0  0.9375 1 0  1.40625 1 0  5.625 1 0  5.625 0 0  2.8125 1 0  2.8125 0 0  4.6875 0 0  4.6875 1 0  6.5625 0 0  6.5625 1 0  5.15625 0.5 0  4.21875 0.5 0  2.34375 0.5 0  3.28125 0.5 0  6.09375 0.5 0  7.5 0.5 0  6.897916666666666 0.5 0  1.842708333333333 0.5 0  0 0.5 0  0.46875 0 0  5.625 0.5302734375 0  7.03125 0 0  6.09375 1 0  2.8125 0.4697265625 0  3.28125 0 0  2.34375 1 0  2.34375 0 0  3.75 0.4697265625 0  4.21875 0 0  4.21875 1 0  4.6875 0.5302734375 0  3.28125 1 0  5.15625 0 0  6.09375 0 0  5.15625 1 0  0.46875 1 0  1.40625 0 0  7.03125 1 0  0.3954638734376499 0.5975780249976004 0  6.495833333333334 0.4072265624999998 0  5.859375 0.25 0  4.905729166666666 0.26513671875 0  4.453125 0.25 0  3.531770833333333 0.73486328125 0  3.968229166666667 0.73486328125 0  2.594270833333333 0.73486328125 0  3.030729166666667 0.73486328125 0  6.328125 0.75 0  7.198958333333334 0.3125000000000002 0  7.198958333333334 0.6874999999999998 0  5.390625 0.25 0  0 0.25 0  2.109375 0.75 0  2.109375 0.25 0  1.51921323205749 0.3418883887525936 0  1.522346610178253 0.6811769608297746 0  5.375456746419271 0.75 0  4.921875 0.76513671875 0  4.437956746419271 0.75 0  3.984375 0.23486328125 0  3.500456746419271 0.25 0  2.578125 0.23486328125 0  3.046875 0.23486328125 0  5.874543253580729 0.75 0  6.642123189445656 0.6909095493086836 0  6.746354166666666 0.2391688368055553 0  0.3197109619185111 0.2850049285972083 0  6.328125 0 0  0.6313375889370429 0.2351325552547357 0  0 0.75 0  6.252283381534729 0.2693808819694041 0  0.234375 1 0  6.948437500000001 0.7543055555555555 0  0.5934018769555939 0.7694151657947577 0  1.858854166666667 0.75 0  1.858854166666667 0.25 0  1.640625 0 0  2.093229166666667 0.5 0  7.5 0.25 0  3.282227579752604 0.75 0  7.5 0.75 0  1.171875 0 0  1.303539853147731 0.2235426933121065 0  5.148177083333333 0.2575683593749998 0  2.351822916666667 0.742431640625 0  1.640625 1 0  4.202380413457425 0.7645435094236485 0  3.047822985053062 0.4701848030090332 0  2.577177014946938 0.4701848030090332 0  4.672792740482199 0.76513671875 0  4.922822985053062 0.5298151969909668 0  5.390593497949761 0.5156244924311331 0  5.610292740482199 0.76513671875 0  3.516602579752604 0.5 0  4.45496853898097 0.4865915990446593 0  5.85753146101903 0.4865915990446593 0  3.749511210123698 0.23486328125 0  3.983397420247396 0.4999999999999999 0  2.343497975411212 0.2346270081980111 0  4.219002024588788 0.2346270081980111 0  0.703125 0 0  2.8125 0.2343755075688669 0  3.046875 0 0  2.578125 0 0  3.515625 0 0  3.984375 0 0  4.453125 1 0  5.390625 1 0  2.109375 0 0  2.109375 1 0  5.625 0.2921402030705575 0  5.390625 0 0  7.265625 0 0  6.796875 0 0  6.328125 1 0  3.046875 1 0  2.578125 1 0  3.984375 1 0  3.515625 1 0  4.453125 0 0  4.921875 0 0  5.859375 0 0  0.703125 1 0  1.171875 1 0  7.265625 1 0  4.921875 1 0  5.859375 1 0  0.234375 0 0  6.796875 1 0  6.980310975276531 0.2285890127127066 0  5.149170481934885 0.772689292163473 0  3.274170481934884 0.2273107078365268 0  6.101334126790364 0.7722468376159667 0  4.678005340872584 0.3000799877067239 0  2.8125 0.6921051326382495 0  3.75 0.6921051326382495 0  0.3515624999999999 0.8134571721668546 0  0.4990405774417521 0.4070099317153735 0  0.1789273931360182 0.625 0  6.31239060814315 0.5298877111157968 0  6.456979773992304 0.1917956348713352 0  6.699870808919271 0.4406293402777773 0  1.337539480965883 0.7944303676599538 0  6.058675797563041 0.2019812164653516 0  0.8203125 0.1643029084422534 0  0.1480856513011711 0.375 0  1.090769294689562 0.1719186776982972 0  7.291088163206459 0.5 0  7.094502414936563 0.5197902199074071 0  0.6046212059042245 0.5730066483871106 0  1.707231580809486 0.6342709161352207 0  1.685961352504593 0.8193269193390785 0  1.374721602852827 0.4600373025865813 0  6.486415510043844 0.5916440776477192 0  1.5234375 0.1508863828685116 0  1.707925830421689 0.3657739208189008 0  0.1674513225045584 0.8278776664019765 0  7.138268756771176 0.1438183366439137 0  7.1484375 0.8616388888888887 0  7.328562530764119 0.819498462930605 0  4.101073710123698 0.3678637200736647 0  1.693878467219965 0.1911955120941053 0  1.577566745468488 0.5110082404081502 0  6.6796875 0.8653871806883484 0  6.498039504430512 0.825568433346395 0  0.7562556668576472 0.8333197949571929 0  4.101045914668806 0.6255195807449272 0  5.030745188395182 0.382829047309028 0  2.476364945868651 0.6095868094762166 0  2.729359843907322 0.8460525663191247 0  2.9296875 0.8740763101564099 0  3.163518307559356 0.6254622797994247 0  3.666859843907322 0.8460525663191247 0  3.8671875 0.8740763101564099 0  4.8046875 0.12592368984359 0  3.14936031382311 0.8606990583876851 0  2.4609375 0.8747622921397776 0  5.023140791101972 0.1392266772452574 0  0 0.125 0  0.1759922923594607 0.1727589856739889 0  4.5703125 0.125 0  7.327755777818006 0.1766156770456191 0  5.5078125 0.125 0  5.719712725029036 0.1460701015352787 0  4.327848962028002 0.3674169956512513 0  5.982681121544351 0.3692637923021713 0  3.398926289876302 0.6245417594909667 0  5.281756792511996 0.3827993367299961 0  2.226822645963271 0.6252438868405666 0  2.234390064317166 0.8676616584526566 0  5.2734375 0.125 0  1.96796875 0.382568359375 0  2.234651037971999 0.3674169956512511 0  1.984114583333333 0.132568359375 0  1.9921875 0.875 0  1.984114583333333 0.632568359375 0  5.748733794462357 0.8678269127183313 0  3.3984375 0.875456329184688 0  1.512925924995415 0.8582958012121853 0  1.359299372802969 0.6275861864990343 0  4.810521420483513 0.4041767793635395 0  0.2996213306116602 0.455339710363317 0  5.999933717403708 0.6388425470751088 0  5.250033449003657 0.6388713364551682 0  3.631676045992918 0.3525406652400928 0  4.3359375 0.8816499670325881 0  4.343577437052484 0.6116511299909198 0  3.375033449003656 0.3611286635448316 0  5.763152151652243 0.6249404690537395 0  4.549347848347757 0.6249404690537396 0  5.5004588702411 0.6403667365776566 0  5.976118394847484 0.8816230218343086 0  5.054722486865804 0.6338007028640954 0  3.164542163493752 0.3520519332736524 0  2.445407482032355 0.3672168403687257 0  4.8046875 0.882568359375 0  4.1015625 0.117431640625 0  2.4609375 0.117431640625 0  2.695556894938151 0.3520510350344335 0  2.929443105061849 0.3520510350344335 0  3.881979231817319 0.3670559016511187 0  3.8671875 0.117431640625 0  4.805389247695744 0.6470047893641744 0  3.399370721942191 0.1184066543556767 0  5.274370721942192 0.881593345644323 0  3.618253274934649 0.1316869186284249 0  2.6953125 0.1171877537844335 0  2.9296875 0.1171877537844335 0  2.21873344389451 0.125 0  4.3359375 0.1171877625080073 0  0.6659898565672709 0.3986593551313873 0  7.363359022954956 0.3481046411219251 0  7.363359022954956 0.6518953588780749 0  5.487719392831826 0.3828237631077121 0  2.695054578344725 0.5809158475691247 0  2.944553877887707 0.5964065668438148 0  0.3515625 0.1201898858097106 0  5.5078125 1 0  4.5703125 1 0  5.031746201297604 0.882568359375 0  3.1640625 0 0  6.2109375 1 0  6.186845385763124 0.6336356480571081 0  4.1015625 1 0  6.810399074069772 0.6495574751396682 0  0.4740615253480797 0.2509287743856873 0  7.052064303830151 0.3684417917792242 0  6.195177069665382 0.1216488332168849 0  5.72300154718324 0.4112068202852788 0  3.879157465495092 0.6111892850691246 0  3.645760045247695 0.5809158475691247 0  6.868257400485771 0.3427840810237202 0  6.612030892260864 0.1521752713064389 0  6.615666885941117 0.3151079644097221 0  4.04296875 0.8633718902669071 0  1.183031453639096 0.8486801864185936 0  6.9140625 0 0  6.859079526500421 0.1398292786950638 0  6.808232443325651 0.7957411753922057 0  6.9140625 1 0  4.544955211100143 0.3675874343205077 0  1.0546875 1 0  6.122060236165557 0.3316791557072867 0  0.5859375 0 0  5.9765625 0 0  5.44921875 0.870984788733638 0  4.51171875 0.870984788733638 0  0.7608354256382215 0.2931261274224557 0  6.386875332239937 0.3156583003094978 0  6.985654756850997 0.6147408423643147 0  6.223797257919172 0.8535621912121121 0  5.936822413218736 0.1338376546337823 0  6.23933008800134 0.4095573603773768 0  0.5414022462152697 0.1305482677949959 0  6.331360438104348 0.1370086318183389 0  0.956404929269873 0.1374266563647954 0  1.2890625 1 0  0.691305981127761 0.6764829884281737 0  3.531251607241209 0.8678916320952239 0  2.59787442813022 
[...]
<PointData  Vectors="f_71627"> 
<DataArray  type="Float64"  Name="f_71627"  NumberOfComponents="3" format="ascii">0.0000000000000000e+00 0.0000000000000000e+00 0.0000000000000000e+00  0.0000000000000000e+00 0.0000000000000000e+00 0.0000000000000000e+00  0.0000000000000000e+00 0.0000000000000000e+00 0.0000000000000000e+00  0.0000000000000000e+00 0.0000000000000000e+00 0.0000000000000000e+00  0.0000000000000000e+00 0.0000000000000000e+00 0.0000000000000000e+00  0.0000000000000000e+00 0.0000000000000000e+00 0.0000000000000000e+00  0.0000000000000000e+00 0.0000000000000000e+00 0.0000000000000000e+00  0.0000000000000000e+00 0.0000000000000000e+00 0.0000000000000000e+00  0.0000000000000000e+00 0.0000000000000000e+00 0.0000000000000000e+00  0.0000000000000000e+00 0.0000000000000000e+00 0.0000000000000000e+00  0.0000000000000000e+00 0.0000000000000000e+00 0.0000000000000000e+00  0.0000000000000000e+00 0.0000000000000000e+00 0.0000000000000000e+00  0.0000000000000000e+00 0.0000000000000000e+00 0.0000000000000000e+00  0.0000000000000000e+00 0.0000000000000000e+00 0.0000000000000000e+00  0.0000000000000000e+00 0.0000000000000000e+00 0.0000000000000000e+00  0.0000000000000000e+00 0.0000000000000000e+00 0.0000000000000000e+00  0.0000000000000000e+00 0.0000000000000000e+00 0.0000000000000000e+00  0.0000000000000000e+00 0.0000000000000000e+00 0.0000000000000000e+00  0.0000000000000000e+00 0.0000000000000000e+00 0.0000000000000000e+00  0.0000000000000000e+00 0.0000000000000000e+00 0.0000000000000000e+00  0.0000000000000000e+00 0.0000000000000000e+00 0.0000000000000000e+00  0.0000000000000000e+00 0.0000000000000000e+00 0.0000000000000000e+00  0.0000000000000000e+00 0.0000000000000000e+00 0.0000000000000000e+00  0.0000000000000000e+00 0.0000000000000000e+00 0.0000000000000000e+00  0.0000000000000000e+00 0.0000000000000000e+00 0.0000000000000000e+00  0.0000000000000000e+00 0.0000000000000000e+00 0.0000000000000000e+00  0.0000000000000000e+00 0.0000000000000000e+00 0.0000000000000000e+00  0.0000000000000000e+00 0.0000000000000000e+00 0.0000000000000000e+00  0.0000000000000000e+00 0.0000000000000000e+00 0.0000000000000000e+00  0.0000000000000000e+00 0.0000000000000000e+00 0.0000000000000000e+00  0.0000000000000000e+00 0.0000000000000000e+00 0.0000000000000000e+00  0.0000000000000000e+00 0.0000000000000000e+00 0.0000000000000000e+00  0.0000000000000000e+00 0.0000000000000000e+00 0.0000000000000000e+00  0.0000000000000000e+00 0.0000000000000000e+00 0.0000000000000000e+00  0.0000000000000000e+00 0.0000000000000000e+00 0.0000000000000000e+00  0.0000000000000000e+00 0.0000000000000000e+00 0.0000000000000000e+00  0.0000000000000000e+00 0.0000000000000000e+00 0.0000000000000000e+00  0.0000000000000000e+00 0.0000000000000000e+00 0.0000000000000000e+00  0.0000000000000000e+00 0.0000000000000000e+00 0.0000000000000000e+00  0.0000000000000000e+00 0.0000000000000000e+00 0.0000000000000000e+00  0.0000000000000000e+00 0.0000000000000000e+00 0.0000000000000000e+00  0.0000000000000000e+00 0.0000000000000000e+00 0.0000000000000000e+00  0.0000000000000000e+00 0.0000000000000000e+00 0.0000000000000000e+00  0.0000000000000000e+00 0.0000000000000000e+00 0.0000000000000000e+00  0.0000000000000000e+00 0.0000000000000000e+00 0.0000000000000000e+00  0.0000000000000000e+00 0.0000000000000000e+00 0.0000000000000000e+00  0.0000000000000000e+00 0.0000000000000000e+00 0.0000000000000000e+00  0.0000000000000000e+00 0.0000000000000000e+00 0.0000000000000000e+00  0.0000000000000000e+00 0.0000000000000000e+00 0.0000000000000000e+00  0.0000000000000000e+00 0.0000000000000000e+00 0.0000000000000000e+00  0.0000000000000000e+00 0.0000000000000000e+00 0.0000000000000000e+00  0.0000000000000000e+00 0.0000000000000000e+00 0.0000000000000000e+00  0.0000000000000000e+00 0.0000000000000000e+00 0.0000000000000000e+00  0.0000000000000000e+00 0.0000000000000000e+00 0.0000000000000000e+00  0.0000000000000000e+00 0.0000000000000000e+00 0.0000000000000000e+00  0.0000000000000000e+00 0.0000000000000000e+00 0.0000000000000000e+00  0.0000000000000000e+00 0.0000000000000000e+00 0.0000000000000000e+00  0.0000000000000000e+00 0.0000000000000000e+00 0.0000000000000000e+00  0.0000000000000000e+00 0.0000000000000000e+00 0.0000000000000000e+00  1.0986961427323341e+00 -2.7583308648136104e-04 0.0000000000000000e+00  1.1014000386513410e+00 1.7684277964610982e-04 0.0000000000000000e+00  1.2022215261162930e+00 2.3641851457754356e-01 0.0000000000000000e+00  1.0986486277839251e+00 -1.7094641431176737e-02 0.0000000000000000e+00  1.0951897973277069e+00 -1.0737445207430524e-03 0.0000000000000000e+00  1.5000002104547319e+00 0.0000000000000000e+00 0.0000000000000000e+00  1.1837922809074444e+00 -4.1828716813593330e-03 0.0000000000000000e+00  4.2632667103156868e-01 -4.6138552572011537e-01 0.0000000000000000e+00  1.5000002104547319e+00 0.0000000000000000e+00 0.0000000000000000e+00  0.0000000000000000e+00 0.0000000000000000e+00 0.0000000000000000e+00  1.1015988650959334e+00 -7.4098222505899342e-04 0.0000000000000000e+00  0.0000000000000000e+00 0.0000000000000000e+00 0.0000000000000000e+00  0.0000000000000000e+00 0.0000000000000000e+00 0.0000000000000000e+00  1.0798694713879684e+00 -8.6834200171830273e-02 0.0000000000000000e+00  0.0000000000000000e+00 0.0000000000000000e+00 0.0000000000000000e+00  0.0000000000000000e+00 0.0000000000000000e+00 0.0000000000000000e+00  0.0000000000000000e+00 0.0000000000000000e+00 0.0000000000000000e+00  1.0971909529293624e+00 -2.2916464808163542e-03 0.0000000000000000e+00  0.0000000000000000e+00 0.0000000000000000e+00 0.0000000000000000e+00  0.0000000000000000e+00 0.0000000000000000e+00 0.0000000000000000e+00  1.1020764448549245e+00 9.0874065754799273e-04 0.0000000000000000e+00  0.0000000000000000e+00 0.0000000000000000e+00 0.0000000000000000e+00  0.0000000000000000e+00 0.0000000000000000e+00 0.0000000000000000e+00  0.0000000000000000e+00 0.0000000000000000e+00 0.0000000000000000e+00  0.0000000000000000e+00 0.0000000000000000e+00 0.0000000000000000e+00  0.0000000000000000e+00 0.0000000000000000e+00 0.0000000000000000e+00  0.0000000000000000e+00 0.0000000000000000e+00 0.0000000000000000e+00  0.0000000000000000e+00 0.0000000000000000e+00 0.0000000000000000e+00  1.3738648636083663e+00 4.0354414453230389e-02 0.0000000000000000e+00  1.1274593054732880e+00 -4.9835793917529557e-03 0.0000000000000000e+00  1.1070322480472332e+00 3.9628671303249192e-04 0.0000000000000000e+00  1.0879543125395057e+00 2.5682865358227823e-03 0.0000000000000000e+00  1.0856867841995743e+00 1.9545641730757094e-03 0.0000000000000000e+00  1.1026032351418416e+00 -6.5957003379749930e-03 0.0000000000000000e+00  1.1029109940988009e+00 -3.3676685370828349e-04 0.0000000000000000e+00  1.3664277278271020e+00 -8.7441716776777895e-02 0.0000000000000000e+00  1.1317645484655825e+00 -3.0031458190300970e-02 0.0000000000000000e+00  1.0989001179169746e+00 -3.5168655541225236e-04 0.0000000000000000e+00  7.8401904740354567e-01 1.0275657234271186e-03 0.0000000000000000e+00  9.4869380278169668e-01 1.8803636493243171e-02 0.0000000000000000e+00  1.0850488345629570e+00 2.4664553990511682e-03 0.0000000000000000e+00  1.1250001578410487e+00 0.0000000000000000e+00 0.0000000000000000e+00  8.4022167034447270e-01 4.3236042528054580e-01 0.0000000000000000e+00  1.7914310396167688e+00 4.0276280702333422e-01 0.0000000000000000e+00  6.8184042325812910e-01 -1.4079315167792947e-01 0.0000000000000000e+00  1.2202511881510569e+00 -6.9682761487982081e-01 0.0000000000000000e+00  1.0988864176528099e+00 3.9004958106722133e-03 0.0000000000000000e+00  1.1037790744007239e+00 4.4703578362986123e-03 0.0000000000000000e+00  1.1030385657905648e+00 1.2272605132680986e-03 0.0000000000000000e+00  1.0946072697052311e+00 -3.1731771360481173e-03 0.0000000000000000e+00  1.0912386500881714e+00 -6.8862190806441561e-03 0.0000000000000000e+00  9.7254851449858426e-01 -1.0898962781907938e-01 0.0000000000000000e+00  1.0686244934951126e+00 -2.2355402014532760e-02 0.0000000000000000e+00  1.1027645393740872e+00 -5.4041542366289538e-04 0.0000000000000000e+00  1.0801636612879180e+00 -3.6802079563952848e-04 0.0000000000000000e+00  1.1100694990623774e+00 -8.0966592722171698e-03 0.0000000000000000e+00  1.2128081330226756e+00 -3.9417242926196278e-02 0.0000000000000000e+00  0.0000000000000000e+00 0.0000000000000000e+00 0.0000000000000000e+00  1.1632271545413992e+00 -2.5677999143184105e-01 0.0000000000000000e+00  1.1250001578410487e+00 0.0000000000000000e+00 0.0000000000000000e+00  1.1172102664037999e+00 7.2446783706088189e-04 0.0000000000000000e+00  0.0000000000000000e+00 0.0000000000000000e+00 0.0000000000000000e+00  1.2604898517963936e+00 -3.2121885802958161e-03 0.0000000000000000e+00  1.1223785837919569e+00 2.7443908982603410e-01 0.0000000000000000e+00  1.0738724476197412e+00 -1.9292450227463315e-01 0.0000000000000000e+00  2.2089305734887739e+00 7.1957425694250388e-01 0.0000000000000000e+00  0.0000000000000000e+00 0.0000000000000000e+00 0.0000000000000000e+00  1.5411218858489786e+00 1.0955656252967041e+00 0.0000000000000000e+00  1.1250001578410487e+00 0.0000000000000000e+00 0.0000000000000000e+00  1.1075950902788823e+00 -1.2561202583307682e-02 0.0000000000000000e+00  1.1250001578410487e+00 0.0000000000000000e+00 0.0000000000000000e+00  0.0000000000000000e+00 0.0000000000000000e+00 0.0000000000000000e+00  2.1290237365846276e+00 -1.4827234279366830e-01 0.0000000000000000e+00  1.0950870682961753e+00 4.1833743064938209e-03 0.0000000000000000e+00  1.4175914611444049e+00 3.1830997481713552e-01 0.0000000000000000e+00  0.0000000000000000e+00 0.0000000000000000e+00 0.0000000000000000e+00  1.1033070484966099e+00 8.5960591693025150e-04 0.0000000000000000e+00  1.0947591389725044e+00 -3.8556844908422365e-02 0.0000000000000000e+00  1.0029479568446213e+00 -1.1971714311013638e-01 0.0000000000000000e+00  1.1046634599226859e+00 2.4283893585764606e-03 0.0000000000000000e+00  1.0971814428433853e+00 3.7561631973399623e-04 0.0000000000000000e+00  1.0992889080057651e+00 4.6983853040645220e-04 0.0000000000000000e+00  1.0963725985829451e+00 1.0122600183828979e-03 0.0000000000000000e+00  1.1035574036287539e+00 -5.9508454327008679e-03 0.0000000000000000e+00  1.0981877478071553e+00 1.4882700408067977e-03 0.0000000000000000e+00  1.1047327150763457e+00 -3.1385225935153223e-03 0.0000000000000000e+00  1.0948080717179682e+00 -5.5243204803622345e-03 0.0000000000000000e+00  1.1030864253878525e+00 1.8976173120422427e-04 0.0000000000000000e+00  1.0154409370603013e+00 -2.2092276599853661e-01 0.0000000000000000e+00  1.0872877459406769e+00 -5.9116246229969766e-04 0.0000000000000000e+00  0.0000000000000000e+00 0.0000000000000000e+00 0.0000000000000000e+00  1.0299997845450408e+00 -4.4967080587581011e-02 0.0000000000000000e+00  0.0000000000000000e+00 0.0000000000000000e+00 0.0000000000000000e+00  0.0000000000000000e+00 0.0000000000000000e+00 0.0000000000000000e+00  0.0000000000000000e+00 0.0000000000000000e+00 0.0000000000000000e+00  0.0000000000000000e+00 0.0000000000000000e+00 0.0000000000000000e+00  0.0000000000000000e+00 0.0000000000000000e+00 0.0000000000000000e+00  0.0000000000000000e+00 0.0000000000000000e+00 0.0000000000000000e+00  0.0000000000000000e+00 0.0000000000000000e+00 0.0000000000000000e+00  0.0000000000000000e+00 0.0000000000000000e+00 0.0000000000000000e+00  1.0900554816464749e+00 -1.4100230059860854e-03 0.0000000000000000e+00  0.0000000000000000e+00 0.0000000000000000e+00 0.0000000000000000e+00  0.0000000000000000e+00 0.0000000000000000e+00 0.0000000000000000e+00  0.0000000000000000e+00 0.0000000000000000e+00 0.0000000000000000e+00  0.0000000000000000e+00 0.0000000000000000e+00 0.0000000000000000e+00  0.0000000000000000e+00 0.0000000000000000e+00 0.0000000000000000e+00  0.0000000000000000e+00 0.0000000000000000e+00 0.0000000000000000e+00  0.0000000000000000e+00 0.0000000000000000e+00 0.0000000000000000e+00  0.0000000000000000e+00 0.0000000000000000e+00 0.0000000000000000e+00  0.0000000000000000e+00 0.0000000000000000e+00 0.0000000000000000e+00  0.0000000000000000e+00 0.0000000000000000e+00 0.0000000000000000e+00  0.0000000000000000e+00 0.0000000000000000e+00 0.0000000000000000e+00  0.0000000000000000e+00 0.0000000000000000e+00 0.0000000000000000e+00  0.0000000000000000e+00 0.0000000000000000e+00 0.0000000000000000e+00  0.0000000000000000e+00 0.0000000000000000e+00 0.0000000000000000e+00  0.0000000000000000e+00 0.0000000000000000e+00 0.0000000000000000e+00  0.0000000000000000e+00 0.0000000000000000e+00 0.0000000000000000e+00  0.0000000000000000e+00 0.0000000000000000e+00 0.0000000000000000e+00  0.0000000000000000e+00 0.0000000000000000e+00 0.0000000000000000e+00  1.1530459265191375e+00 -1.8365400657050256e-03 0.0000000000000000e+00  1.0998742017958709e+00 2.2065145389162269e-03 0.0000000000000000e+00  1.0836879870978418e+00 -9.6285157285468295e-03 0.0000000000000000e+00  1.1005114655308015e+00 -2.4071014028685081e-03 0.0000000000000000e+00  1.0911369696583912e+00 9.7593373899173999e-04 0.0000000000000000e+00  1.1593494017375385e+00 -7.2865007685110519e-02 0.0000000000000000e+00  1.1011547810673565e+00 -3.9112706033828104e-03 0.0000000000000000e+00  9.4111112841879263e-01 6.0612050406030946e-02 0.0000000000000000e+00  1.3255552550987793e+00 -9.2795173208762710e-02 0.0000000000000000e+00  1.3957110349787891e+00 1.6156211044969618e-02 0.0000000000000000e+00  1.0945904457089204e+00 -1.1593986267714144e-03 0.0000000000000000e+00  1.1196009913800997e+00 -3.8459388882646026e-03 0.0000000000000000e+00  1.1606517884143437e+00 -7.8221429019595633e-03 0.0000000000000000e+00  2.4632483737842574e+00 -2.1985306590863835e-01 0.0000000000000000e+00  1.1069112835912485e+00 1.1924946084900267e-04 0.0000000000000000e+00  1.3135468621450608e+00 -3.2187769834211105e-01 0.0000000000000000e+00  1.4025473190882125e+00 -5.7961773042119772e-03 0.0000000000000000e+00  1.8590357519203962e+00 -2.0034446809227177e-01 0.0000000000000000e+00  1.3938729231473166e+00 -3.8242152007934918e-03 0.0000000000000000e+00  1.3540680442510404e+00 2.4777347550706268e-03 0.0000000000000000e+00  1.1618699015046696e+00 1.1750393563719883e-01 0.0000000000000000e+00  1.1096155622758128e+00 -1.3149700520483287e+00 0.0000000000000000e+00  1.5438452473766306e+00 -7.1295394408129920e-01 0.0000000000000000e+00  -1.2718129742495337e+00 2.0864626767047569e-02 0.0000000000000000e+00  1.1048266548360803e+00 -2.1358355614475152e-03 0.0000000000000000e+00  2.1707128956380370e+00 8.8270722310256705e-02 0.0000000000000000e+00  1.0252037528474174e+00 6.5953692400271186e-02 0.0000000000000000e+00  8.6086469576792957e-01 1.9497975541679181e-02 0.0000000000000000e+00  9.3398699786401662e-01 -1.0821025237065450e-02 0.0000000000000000e+00  1.0321727418925004e+00 -2.4784626027922613e-03 0.0000000000000000e+00  7.5364326228100353e-01 -2.3016135118941608e-03 0.0000000000000000e+00  1.0974497157267988e+00 4.5165417427620415e-04 0.0000000000000000e+00  2.2434176656318594e+00 3.9896296756341876e-01 0.0000000000000000e+00  -9.4666120362352457e-01 -6.2852531449188664e-01 0.0000000000000000e+00  1.1349296380841605e+00 4.7016565251878466e-03 0.0000000000000000e+00  1.0427911464145638e+00 -2.4490028525581114e-03 0.0000000000000000e+00  1.2980047685115030e+00 4.7567978765242019e-01 0.0000000000000000e+00  1.1056450142301586e+00 -1.7059408316861448e-04 0.0000000000000000e+00  1.0962417902161581e+00 2.2832113993320204e-03 0.0000000000000000e+00  1.0306309159710947e+00 -1.0511548024256629e-02 0.0000000000000000e+00  1.1604524388527977e+00 -1.5264162091470513e-02 0.0000000000000000e+00  1.1245612133743850e+00 -2.4827497919785661e-02 0.0000000000000000e+00  1.1116946677120860e+00 -2.4669507526057045e-02 0.0000000000000000e+00  1.0789917242569367e+00 -3.3376050687273745e-03 0.0000000000000000e+00  1.0761122107941121e+00 -1.3417926676884356e-03 0.0000000000000000e+00  1.0704127226429863e+00 3.1119286823901582e-03 0.0000000000000000e+00  1.1093848803320610e+00 -1.0279669723273951e-02 0.0000000000000000e+00  1.1904200625257040e+00 1.8132759482813918e-01 0.0000000000000000e+00  1.0823547754720368e+00 3.7045666627250604e-03 0.0000000000000000e+00  6.5625009207394513e-01 0.0000000000000000e+00 0.0000000000000000e+00  8.5792624175360765e-01 -1.1785958976987790e-02 0.0000000000000000e+00  1.0744415232063573e+00 2.5219904690476462e-04 0.0000000000000000e+00  4.4959927987106840e-01 1.9054496792127625e-02 0.0000000000000000e+00  1.0746553940844317e+00 1.0088852955045403e-03 0.0000000000000000e+00  1.0869905159096216e+00 2.5581332744597216e-03 0.0000000000000000e+00  1.0946394811668878e+00 4.7234526295407566e-05 0.0000000000000000e+00  1.0866655440264996e+00 -3.1429051852055207e-03 0.0000000000000000e+00  1.1076860328127689e+00 -1.1145109423816314e-02 0.0000000000000000e+00  1.0989613191825325e+00 6.3408740587812850e-04 0.0000000000000000e+00  1.1392758640576568e+00 6.2369680564571550e-01 0.0000000000000000e+00  1.2487883205012149e+00 1.4515931815565250e-01 0.0000000000000000e+00  1.0834882186323365e+00 -4.1303672702326256e-03 0.0000000000000000e+00  2.1568933676372732e+00 9.7527207330990229e-01 0.0000000000000000e+00  1.4809682004348272e+00 2.9232882642379349e-01 0.0000000000000000e+00  8.2824708254365020e-01 3.5630554063677911e-01 0.0000000000000000e+00  6.8586838470614664e-01 1.9814046128872381e-01 0.0000000000000000e+00  3.7570053505309986e-01 1.1208258297967952e-01 0.0000000000000000e+00  1.0957432773102909e+00 1.5591407301096512e-03 0.0000000000000000e+00  1.0862367177831131e+00 -5.3455343103021328e-03 0.0000000000000000e+00  1.9276565322385981e+00 -6.0888065741303143e-01 0.0000000000000000e+00  2.5121938988378506e-01 2.8078875532535097e-01 0.0000000000000000e+00  1.0943484828133565e+00 3.6018856245644210e-04 0.0000000000000000e+00  1.4509162887575917e+00 -1.1735380181926585e-02 0.0000000000000000e+00  1.0935105665281732e+00 -6.7323813532293422e-04 0.0000000000000000e+00  1.0978091141265771e+00 2.9480602837706041e-04 0.0000000000000000e+00  1.0973158294025502e+00 -2.7742644033060581e-03 0.0000000000000000e+00  1.0773932313375760e+00 -2.0423962990232696e-04 0.0000000000000000e+00  1.1065301221343531e+00 -2.5799160868448287e-04 0.0000000000000000e+00  1.0947920753210167e+00 -1.0544836002876142e-02 0.0000000000000000e+00  1.0953226247306609e+00 -1.3202418070695919e-03 0.0000000000000000e+00  1.1016100354995659e+00 1.5211668152946144e-03 0.0000000000000000e+00  1.1006182445650239e+00 -2.6085769497167202e-03 0.0000000000000000e+00  1.0995941030057987e+00 1.8211403349878329e-04 0.0000000000000000e+00  1.1032593753169551e+00 7.1208435027813222e-04 0.0000000000000000e+00  1.0871769332879249e+00 -2.2035794481910866e-02 0.0000000000000000e+00  1.0891381017252053e+00 -1.3590911564656138e-01 0.0000000000000000e+00  1.0640379389025842e+00 6.9962784403775060e-03 0.0000000000000000e+00  1.0654282115931564e+00 -1.7164798202696839e-03 0.0000000000000000e+00  7.8048569460801509e-01 -1.3393389502448996e-01 0.0000000000000000e+00  1.0294978624140156e+00 -9.2580690023256529e-02 0.0000000000000000e+00  1.0691952321212548e+00 -4.7163323650361556e-02 0.0000000000000000e+00  1.0973094802064582e+00 -1.3013124647353028e-03 0.0000000000000000e+00  1.0650639232057353e+00 -3.4046595886021032e-03 0.0000000000000000e+00  1.1024476686005149e+00 2.2967148156615826e-03 0.0000000000000000e+00  1.0559036111277422e+00 -2.0708925085018062e-03 0.0000000000000000e+00  1.0808222476549978e+00 4.7541599783792032e-03 0.0000000000000000e+00  1.0662556575717563e+00 -4.2617836113183153e-03 0.0000000000000000e+00  9.4001533733888676e-01 -2.8374638651262780e-02 0.0000000000000000e+00  1.0096815983001017e+00 -8.3835918228179138e-03 0.0000000000000000e+00  5.1435776835991509e-01 -2.7409343751365539e-01 0.0000000000000000e+00  1.0710999718776644e+00 -1.4120420713614034e-05 0.0000000000000000e+00  1.1696141278441736e+00 -3.2377597154011389e-01 0.0000000000000000e+00  9.8825254860541945e-01 -1.3956965073803795e-02 0.0000000000000000e+00  1.0721335064037181e+00 1.5635982299834372e-02 0.0000000000000000e+00  1.0987087282915058e+00 -3.9939381070075311e-04