<?xml version="1.0"?>
<VTKFile type="UnstructuredGrid"  version="0.1"  >
<UnstructuredGrid>
<Piece  NumberOfPoints="4269" NumberOfCells="8234">
<Points>
<DataArray  type="Float64"  NumberOfComponents="3"  format="ascii">0 1 0  0 0 0  7.5 0 0  7.5 1 0  1.197537668119028 0.5812868930080463 0  1.2 0.55 0  1.197537668119028 0.5187131069919538 0  1.190211303259031 0.4881966011250105 0  1.178201304837674 0.4592019000520907 0  1.161803398874989 0.4324429495415054 0  1.141421356237309 0.4085786437626905 0  1.117557050458495 0.3881966011250105 0  1.090798099947909 0.3717986951623264 0  1.06180339887499 0.3597886967409693 0  1.031286893008046 0.3524623318809725 0  1 0.35 0  0.9687131069919538 0.3524623318809725 0  0.9381966011250105 0.3597886967409694 0  0.9092019000520906 0.3717986951623264 0  0.8824429495415054 0.3881966011250105 0  0.8585786437626904 0.4085786437626905 0  0.8381966011250105 0.4324429495415054 0  0.8217986951623264 0.4592019000520907 0  0.8097886967409692 0.4881966011250107 0  0.8024623318809725 0.5187131069919539 0  0.8 0.55 0  0.8024623318809725 0.5812868930080463 0  0.8097886967409693 0.6118033988749896 0  0.8217986951623264 0.6407980999479095 0  0.8381966011250105 0.6675570504584947 0  0.8585786437626906 0.6914213562373096 0  0.8824429495415054 0.7118033988749896 0  0.9092019000520907 0.7282013048376736 0  0.9381966011250106 0.7402113032590307 0  0.9687131069919539 0.7475376681190276 0  1 0.75 0  1.031286893008046 0.7475376681190276 0  1.06180339887499 0.7402113032590307 0  1.090798099947909 0.7282013048376736 0  1.117557050458495 0.7118033988749896 0  1.141421356237309 0.6914213562373095 0  1.161803398874989 0.6675570504584947 0  1.178201304837674 0.6407980999479094 0  1.190211303259031 0.6118033988749896 0  3.75 0 0  3.75 1 0  1.875 0 0  1.875 1 0  0.9375 0 0  0.9375 1 0  1.40625 1 0  5.625 1 0  5.625 0 0  2.8125 1 0  2.8125 0 0  4.6875 0 0  4.6875 1 0  6.5625 0 0  6.5625 1 0  5.15625 0.5 0  4.21875 0.5 0  2.34375 0.5 0  3.28125 0.5 0  6.09375 0.5 0  7.5 0.5 0  6.897916666666666 0.5 0  1.842708333333333 0.5 0  0 0.5 0  0.46875 0 0  5.625 0.5302734375 0  7.03125 0 0  6.09375 1 0  2.8125 0.4697265625 0  3.28125 0 0  2.34375 1 0  2.34375 0 0  3.75 0.4697265625 0  4.21875 0 0  4.21875 1 0  4.6875 0.5302734375 0  3.28125 1 0  5.15625 0 0  6.09375 0 0  5.15625 1 0  0.46875 1 0  1.40625 0 0  7.03125 1 0  0.3954638734376499 0.5975780249976004 0  6.495833333333334 0.4072265624999998 0  5.859375 0.25 0  4.905729166666666 0.26513671875 0  4.453125 0.25 0  3.531770833333333 0.73486328125 0  3.968229166666667 0.73486328125 0  2.594270833333333 0.73486328125 0  3.030729166666667 0.73486328125 0  6.328125 0.75 0  7.198958333333334 0.3125000000000002 0  7.198958333333334 0.6874999999999998 0  5.390625 0.25 0  0 0.25 0  2.109375 0.75 0  2.109375 0.25 0  1.51921323205749 0.3418883887525936 0  1.522346610178253 0.6811769608297746 0  5.375456746419271 0.75 0  4.921875 0.76513671875 0  4.437956746419271 0.75 0  3.984375 0.23486328125 0  3.500456746419271 0.25 0  2.578125 0.23486328125 0  3.046875 0.23486328125 0  5.874543253580729 0.75 0  6.642123189445656 0.6909095493086836 0  6.746354166666666 0.2391688368055553 0  0.3197109619185111 0.2850049285972083 0  6.328125 0 0  0.6313375889370429 0.2351325552547357 0  0 0.75 0  6.252283381534729 0.2693808819694041 0  0.234375 1 0  6.948437500000001 0.7543055555555555 0  0.5934018769555939 0.7694151657947577 0  1.858854166666667 0.75 0  1.858854166666667 0.25 0  1.640625 0 0  2.093229166666667 0.5 0  7.5 0.25 0  3.282227579752604 0.75 0  7.5 0.75 0  1.171875 0 0  1.303539853147731 0.2235426933121065 0  5.148177083333333 0.2575683593749998 0  2.351822916666667 0.742431640625 0  1.640625 1 0  4.202380413457425 0.7645435094236485 0  3.047822985053062 0.4701848030090332 0  2.577177014946938 0.4701848030090332 0  4.672792740482199 0.76513671875 0  4.922822985053062 0.5298151969909668 0  5.390593497949761 0.5156244924311331 0  5.610292740482199 0.76513671875 0  3.516602579752604 0.5 0  4.45496853898097 0.4865915990446593 0  5.85753146101903 0.4865915990446593 0  3.749511210123698 0.23486328125 0  3.983397420247396 0.4999999999999999 0  2.343497975411212 0.2346270081980111 0  4.219002024588788 0.2346270081980111 0  0.703125 0 0  2.8125 0.2343755075688669 0  3.046875 0 0  2.578125 0 0  3.515625 0 0  3.984375 0 0  4.453125 1 0  5.390625 1 0  2.109375 0 0  2.109375 1 0  5.625 0.2921402030705575 0  5.390625 0 0  7.265625 0 0  6.796875 0 0  6.328125 1 0  3.046875 1 0  2.578125 1 0  3.984375 1 0  3.515625 1 0  4.453125 0 0  4.921875 0 0  5.859375 0 0  0.703125 1 0  1.171875 1 0  7.265625 1 0  4.921875 1 0  5.859375 1 0  0.234375 0 0  6.796875 1 0  6.980310975276531 0.2285890127127066 0  5.149170481934885 0.772689292163473 0  3.274170481934884 0.2273107078365268 0  6.101334126790364 0.7722468376159667 0  4.678005340872584 0.3000799877067239 0  2.8125 0.6921051326382495 0  3.75 0.6921051326382495 0  0.3515624999999999 0.8134571721668546 0  0.4990405774417521 0.4070099317153735 0  0.1789273931360182 0.625 0  6.31239060814315 0.5298877111157968 0  6.456979773992304 0.1917956348713352 0  6.699870808919271 0.4406293402777773 0  1.337539480965883 0.7944303676599538 0  6.058675797563041 0.2019812164653516 0  0.8203125 0.1643029084422534 0  0.1480856513011711 0.375 0  1.090769294689562 0.1719186776982972 0  7.291088163206459 0.5 0  7.094502414936563 0.5197902199074071 0  0.6046212059042245 0.5730066483871106 0  1.707231580809486 0.6342709161352207 0  1.685961352504593 0.8193269193390785 0  1.374721602852827 0.4600373025865813 0  6.486415510043844 0.5916440776477192 0  1.5234375 0.1508863828685116 0  1.707925830421689 0.3657739208189008 0  0.1674513225045584 0.8278776664019765 0  7.138268756771176 0.1438183366439137 0  7.1484375 0.8616388888888887 0  7.328562530764119 0.819498462930605 0  4.101073710123698 0.3678637200736647 0  1.693878467219965 0.1911955120941053 0  1.577566745468488 0.5110082404081502 0  6.6796875 0.8653871806883484 0  6.498039504430512 0.825568433346395 0  0.7562556668576472 0.8333197949571929 0  4.101045914668806 0.6255195807449272 0  5.030745188395182 0.382829047309028 0  2.476364945868651 0.6095868094762166 0  2.729359843907322 0.8460525663191247 0  2.9296875 0.8740763101564099 0  3.163518307559356 0.6254622797994247 0  3.666859843907322 0.8460525663191247 0  3.8671875 0.8740763101564099 0  4.8046875 0.12592368984359 0  3.14936031382311 0.8606990583876851 0  2.4609375 0.8747622921397776 0  5.023140791101972 0.1392266772452574 0  0 0.125 0  0.1759922923594607 0.1727589856739889 0  4.5703125 0.125 0  7.327755777818006 0.1766156770456191 0  5.5078125 0.125 0  5.719712725029036 0.1460701015352787 0  4.327848962028002 0.3674169956512513 0  5.982681121544351 0.3692637923021713 0  3.398926289876302 0.6245417594909667 0  5.281756792511996 0.3827993367299961 0  2.226822645963271 0.6252438868405666 0  2.234390064317166 0.8676616584526566 0  5.2734375 0.125 0  1.96796875 0.382568359375 0  2.234651037971999 0.3674169956512511 0  1.984114583333333 0.132568359375 0  1.9921875 0.875 0  1.984114583333333 0.632568359375 0  5.748733794462357 0.8678269127183313 0  3.3984375 0.875456329184688 0  1.512925924995415 0.8582958012121853 0  1.359299372802969 0.6275861864990343 0  4.810521420483513 0.4041767793635395 0  0.2996213306116602 0.455339710363317 0  5.999933717403708 0.6388425470751088 0  5.250033449003657 0.6388713364551682 0  3.631676045992918 0.3525406652400928 0  4.3359375 0.8816499670325881 0  4.343577437052484 0.6116511299909198 0  3.375033449003656 0.3611286635448316 0  5.763152151652243 0.6249404690537395 0  4.549347848347757 0.6249404690537396 0  5.5004588702411 0.6403667365776566 0  5.976118394847484 0.8816230218343086 0  5.054722486865804 0.6338007028640954 0  3.164542163493752 0.3520519332736524 0  2.445407482032355 0.3672168403687257 0  4.8046875 0.882568359375 0  4.1015625 0.117431640625 0  2.4609375 0.117431640625 0  2.695556894938151 0.3520510350344335 0  2.929443105061849 0.3520510350344335 0  3.881979231817319 0.3670559016511187 0  3.8671875 0.117431640625 0  4.805389247695744 0.6470047893641744 0  3.399370721942191 0.1184066543556767 0  5.274370721942192 0.881593345644323 0  3.618253274934649 0.1316869186284249 0  2.6953125 0.1171877537844335 0  2.9296875 0.1171877537844335 0  2.21873344389451 0.125 0  4.3359375 0.1171877625080073 0  0.6659898565672709 0.3986593551313873 0  7.363359022954956 0.3481046411219251 0  7.363359022954956 0.6518953588780749 0  5.487719392831826 0.3828237631077121 0  2.695054578344725 0.5809158475691247 0  2.944553877887707 0.5964065668438148 0  0.3515625 0.1201898858097106 0  5.5078125 1 0  4.5703125 1 0  5.031746201297604 0.882568359375 0  3.1640625 0 0  6.2109375 1 0  6.186845385763124 0.6336356480571081 0  4.1015625 1 0  6.810399074069772 0.6495574751396682 0  0.4740615253480797 0.2509287743856873 0  7.052064303830151 0.3684417917792242 0  6.195177069665382 0.1216488332168849 0  5.72300154718324 0.4112068202852788 0  3.879157465495092 0.6111892850691246 0  3.645760045247695 0.5809158475691247 0  6.868257400485771 0.3427840810237202 0  6.612030892260864 0.1521752713064389 0  6.615666885941117 0.3151079644097221 0  4.04296875 0.8633718902669071 0  1.183031453639096 0.8486801864185936 0  6.9140625 0 0  6.859079526500421 0.1398292786950638 0  6.808232443325651 0.7957411753922057 0  6.9140625 1 0  4.544955211100143 0.3675874343205077 0  1.0546875 1 0  6.122060236165557 0.3316791557072867 0  0.5859375 0 0  5.9765625 0 0  5.44921875 0.870984788733638 0  4.51171875 0.870984788733638 0  0.7608354256382215 0.2931261274224557 0  6.386875332239937 0.3156583003094978 0  6.985654756850997 0.6147408423643147 0  6.223797257919172 0.8535621912121121 0  5.936822413218736 0.1338376546337823 0  6.23933008800134 0.4095573603773768 0  0.5414022462152697 0.1305482677949959 0  6.331360438104348 0.1370086318183389 0  0.956404929269873 0.1374266563647954 0  1.2890625 1 0  0.691305981127761 0.6764829884281737 0  3.531251607241209 0.8678916320952239 0  2.59787442813022 
[...]
<PointData  Vectors="f_71627"> 
<DataArray  type="Float64"  Name="f_71627"  NumberOfComponents="3" format="ascii">0.0000000000000000e+00 0.0000000000000000e+00 0.0000000000000000e+00  0.0000000000000000e+00 0.0000000000000000e+00 0.0000000000000000e+00  0.0000000000000000e+00 0.0000000000000000e+00 0.0000000000000000e+00  0.0000000000000000e+00 0.0000000000000000e+00 0.0000000000000000e+00  0.0000000000000000e+00 0.0000000000000000e+00 0.0000000000000000e+00  0.0000000000000000e+00 0.0000000000000000e+00 0.0000000000000000e+00  0.0000000000000000e+00 0.0000000000000000e+00 0.0000000000000000e+00  0.0000000000000000e+00 0.0000000000000000e+00 0.0000000000000000e+00  0.0000000000000000e+00 0.0000000000000000e+00 0.0000000000000000e+00  0.0000000000000000e+00 0.0000000000000000e+00 0.0000000000000000e+00  0.0000000000000000e+00 0.0000000000000000e+00 0.0000000000000000e+00  0.0000000000000000e+00 0.0000000000000000e+00 0.0000000000000000e+00  0.0000000000000000e+00 0.0000000000000000e+00 0.0000000000000000e+00  0.0000000000000000e+00 0.0000000000000000e+00 0.0000000000000000e+00  0.0000000000000000e+00 0.0000000000000000e+00 0.0000000000000000e+00  0.0000000000000000e+00 0.0000000000000000e+00 0.0000000000000000e+00  0.0000000000000000e+00 0.0000000000000000e+00 0.0000000000000000e+00  0.0000000000000000e+00 0.0000000000000000e+00 0.0000000000000000e+00  0.0000000000000000e+00 0.0000000000000000e+00 0.0000000000000000e+00  0.0000000000000000e+00 0.0000000000000000e+00 0.0000000000000000e+00  0.0000000000000000e+00 0.0000000000000000e+00 0.0000000000000000e+00  0.0000000000000000e+00 0.0000000000000000e+00 0.0000000000000000e+00  0.0000000000000000e+00 0.0000000000000000e+00 0.0000000000000000e+00  0.0000000000000000e+00 0.0000000000000000e+00 0.0000000000000000e+00  0.0000000000000000e+00 0.0000000000000000e+00 0.0000000000000000e+00  0.0000000000000000e+00 0.0000000000000000e+00 0.0000000000000000e+00  0.0000000000000000e+00 0.0000000000000000e+00 0.0000000000000000e+00  0.0000000000000000e+00 0.0000000000000000e+00 0.0000000000000000e+00  0.0000000000000000e+00 0.0000000000000000e+00 0.0000000000000000e+00  0.0000000000000000e+00 0.0000000000000000e+00 0.0000000000000000e+00  0.0000000000000000e+00 0.0000000000000000e+00 0.0000000000000000e+00  0.0000000000000000e+00 0.0000000000000000e+00 0.0000000000000000e+00  0.0000000000000000e+00 0.0000000000000000e+00 0.0000000000000000e+00  0.0000000000000000e+00 0.0000000000000000e+00 0.0000000000000000e+00  0.0000000000000000e+00 0.0000000000000000e+00 0.0000000000000000e+00  0.0000000000000000e+00 0.0000000000000000e+00 0.0000000000000000e+00  0.0000000000000000e+00 0.0000000000000000e+00 0.0000000000000000e+00  0.0000000000000000e+00 0.0000000000000000e+00 0.0000000000000000e+00  0.0000000000000000e+00 0.0000000000000000e+00 0.0000000000000000e+00  0.0000000000000000e+00 0.0000000000000000e+00 0.0000000000000000e+00  0.0000000000000000e+00 0.0000000000000000e+00 0.0000000000000000e+00  0.0000000000000000e+00 0.0000000000000000e+00 0.0000000000000000e+00  0.0000000000000000e+00 0.0000000000000000e+00 0.0000000000000000e+00  0.0000000000000000e+00 0.0000000000000000e+00 0.0000000000000000e+00  0.0000000000000000e+00 0.0000000000000000e+00 0.0000000000000000e+00  0.0000000000000000e+00 0.0000000000000000e+00 0.0000000000000000e+00  0.0000000000000000e+00 0.0000000000000000e+00 0.0000000000000000e+00  0.0000000000000000e+00 0.0000000000000000e+00 0.0000000000000000e+00  0.0000000000000000e+00 0.0000000000000000e+00 0.0000000000000000e+00  0.0000000000000000e+00 0.0000000000000000e+00 0.0000000000000000e+00  0.0000000000000000e+00 0.0000000000000000e+00 0.0000000000000000e+00  0.0000000000000000e+00 0.0000000000000000e+00 0.0000000000000000e+00  0.0000000000000000e+00 0.0000000000000000e+00 0.0000000000000000e+00  0.0000000000000000e+00 0.0000000000000000e+00 0.0000000000000000e+00  0.0000000000000000e+00 0.0000000000000000e+00 0.0000000000000000e+00  0.0000000000000000e+00 0.0000000000000000e+00 0.0000000000000000e+00  0.0000000000000000e+00 0.0000000000000000e+00 0.0000000000000000e+00  0.0000000000000000e+00 0.0000000000000000e+00 0.0000000000000000e+00  0.0000000000000000e+00 0.0000000000000000e+00 0.0000000000000000e+00  1.3038281740901783e+00 -2.1466590435506316e-01 0.0000000000000000e+00  1.7303159906484862e+00 8.9642536907289971e-01 0.0000000000000000e+00  1.5781411819501734e+00 -2.4373980027572487e-01 0.0000000000000000e+00  1.3145634624297415e+00 5.6949252013418861e-01 0.0000000000000000e+00  1.5397353399395293e+00 -1.5099720754694437e-01 0.0000000000000000e+00  1.5000002096959235e+00 0.0000000000000000e+00 0.0000000000000000e+00  1.2232195051560504e+00 3.6221661313053627e-02 0.0000000000000000e+00  1.5104493908820209e+00 1.3372839432416725e+00 0.0000000000000000e+00  1.5000002096959235e+00 0.0000000000000000e+00 0.0000000000000000e+00  0.0000000000000000e+00 0.0000000000000000e+00 0.0000000000000000e+00  1.2290783261772027e+00 3.6701581408508460e-01 0.0000000000000000e+00  0.0000000000000000e+00 0.0000000000000000e+00 0.0000000000000000e+00  0.0000000000000000e+00 0.0000000000000000e+00 0.0000000000000000e+00  1.9001521159012016e+00 4.3457807553910011e-03 0.0000000000000000e+00  0.0000000000000000e+00 0.0000000000000000e+00 0.0000000000000000e+00  0.0000000000000000e+00 0.0000000000000000e+00 0.0000000000000000e+00  0.0000000000000000e+00 0.0000000000000000e+00 0.0000000000000000e+00  1.8952391525263941e+00 -8.9934720131030677e-01 0.0000000000000000e+00  0.0000000000000000e+00 0.0000000000000000e+00 0.0000000000000000e+00  0.0000000000000000e+00 0.0000000000000000e+00 0.0000000000000000e+00  1.4474357364249817e+00 -6.3397572337472974e-01 0.0000000000000000e+00  0.0000000000000000e+00 0.0000000000000000e+00 0.0000000000000000e+00  0.0000000000000000e+00 0.0000000000000000e+00 0.0000000000000000e+00  0.0000000000000000e+00 0.0000000000000000e+00 0.0000000000000000e+00  0.0000000000000000e+00 0.0000000000000000e+00 0.0000000000000000e+00  0.0000000000000000e+00 0.0000000000000000e+00 0.0000000000000000e+00  0.0000000000000000e+00 0.0000000000000000e+00 0.0000000000000000e+00  0.0000000000000000e+00 0.0000000000000000e+00 0.0000000000000000e+00  1.3765851979889658e+00 4.2013235752215432e-02 0.0000000000000000e+00  1.3173877412721788e+00 1.6564259237909912e-01 0.0000000000000000e+00  7.4067820473833734e-01 2.2037581941922524e-01 0.0000000000000000e+00  1.4375629998723660e+00 -8.9873517476067977e-01 0.0000000000000000e+00  8.6528531265214814e-01 4.0898952422582913e-01 0.0000000000000000e+00  8.8215542064636410e-01 -9.3167505194879296e-01 0.0000000000000000e+00  3.4372398855758085e-01 4.7858606759156702e-01 0.0000000000000000e+00  6.7681636393043043e-01 -1.0944769578204236e+00 0.0000000000000000e+00  7.8732085028442422e-01 9.6157912733018835e-01 0.0000000000000000e+00  1.0589380657014624e+00 -3.5313010279331584e-02 0.0000000000000000e+00  9.7097729299037439e-01 8.7092809678849354e-04 0.0000000000000000e+00  1.0442376835573675e+00 1.3408642980318904e-02 0.0000000000000000e+00  1.6673159226184580e+00 6.0892519131115475e-01 0.0000000000000000e+00  1.1250001572719426e+00 0.0000000000000000e+00 0.0000000000000000e+00  1.0862553600029652e+00 2.1698459829961123e-01 0.0000000000000000e+00  1.0034211570246310e+00 1.2320025597048409e-01 0.0000000000000000e+00  1.4047412857434536e+00 -2.7043016801100794e-01 0.0000000000000000e+00  1.2038632824180158e+00 -1.3722109765303176e+00 0.0000000000000000e+00  4.7340552824463794e-01 6.4870987085538978e-01 0.0000000000000000e+00  5.9709928007703117e-01 -5.6065691471938839e-01 0.0000000000000000e+00  9.7139315620228150e-01 3.5082165970114854e-01 0.0000000000000000e+00  1.5692232998301106e+00 3.3221527379173060e-01 0.0000000000000000e+00  1.0346368904597816e+00 -5.1166825111686054e-01 0.0000000000000000e+00  1.3300722889489216e+00 -1.4383155890376251e+00 0.0000000000000000e+00  1.2443455561989905e+00 6.6580101119701529e-01 0.0000000000000000e+00  1.3819642244741746e+00 -2.9132731767844984e-02 0.0000000000000000e+00  1.0988606897161988e+00 6.7388799139256134e-02 0.0000000000000000e+00  1.2214334730321985e+00 3.7512736099769926e-02 0.0000000000000000e+00  1.2110114130061524e+00 -3.6795434491176317e-02 0.0000000000000000e+00  0.0000000000000000e+00 0.0000000000000000e+00 0.0000000000000000e+00  1.1578014387593303e+00 -2.6087465816205146e-01 0.0000000000000000e+00  1.1250001572719426e+00 0.0000000000000000e+00 0.0000000000000000e+00  8.3433695330953439e-01 -5.8983272068787895e-01 0.0000000000000000e+00  0.0000000000000000e+00 0.0000000000000000e+00 0.0000000000000000e+00  1.2562536136617546e+00 1.3635855830151370e-02 0.0000000000000000e+00  1.1294765019964044e+00 2.6942162583605389e-01 0.0000000000000000e+00  3.4333530872757262e-01 5.0436729834431315e-01 0.0000000000000000e+00  1.8979349143130839e+00 7.3274355789726175e-01 0.0000000000000000e+00  0.0000000000000000e+00 0.0000000000000000e+00 0.0000000000000000e+00  1.3578859042515996e+00 5.2557534541184070e-01 0.0000000000000000e+00  1.1250001572719426e+00 0.0000000000000000e+00 0.0000000000000000e+00  1.4072345726551889e+00 4.4537312209220281e-01 0.0000000000000000e+00  1.1250001572719426e+00 0.0000000000000000e+00 0.0000000000000000e+00  0.0000000000000000e+00 0.0000000000000000e+00 0.0000000000000000e+00  2.0988619474056955e+00 -9.2736988345106283e-02 0.0000000000000000e+00  1.9609645789263155e+00 9.1729262500583756e-04 0.0000000000000000e+00  1.2169633510190470e+00 -2.7532004434713309e-01 0.0000000000000000e+00  0.0000000000000000e+00 0.0000000000000000e+00 0.0000000000000000e+00  5.6125499861422667e-01 6.4362105598330255e-01 0.0000000000000000e+00  1.5917512026616885e+00 1.3593850305993083e+00 0.0000000000000000e+00  1.8075757781673087e+00 -1.1085718479182520e+00 0.0000000000000000e+00  1.1303624118073912e+00 -3.4183877679005803e-01 0.0000000000000000e+00  1.3921143776213054e+00 -1.0462135410064826e+00 0.0000000000000000e+00  1.2970048950657627e+00 1.1182366385055718e+00 0.0000000000000000e+00  1.1330005489215793e+00 2.3329759022931795e-01 0.0000000000000000e+00  1.3441672122076218e+00 -1.1149662753027818e+00 0.0000000000000000e+00  1.5948042520133459e+00 4.8106380952693295e-01 0.0000000000000000e+00  1.3031601394399210e+00 2.8854320585532839e-01 0.0000000000000000e+00  1.5414885877382036e+00 -2.7569404674903308e-01 0.0000000000000000e+00  1.8286372650051423e+00 2.7228992787471740e-01 0.0000000000000000e+00  7.1488416093618046e-01 4.2381970138928315e-01 0.0000000000000000e+00  1.2156284201187002e+00 3.2187268692220239e-01 0.0000000000000000e+00  0.0000000000000000e+00 0.0000000000000000e+00 0.0000000000000000e+00  1.8755419384296141e+00 9.6525388292450803e-02 0.0000000000000000e+00  0.0000000000000000e+00 0.0000000000000000e+00 0.0000000000000000e+00  0.0000000000000000e+00 0.0000000000000000e+00 0.0000000000000000e+00  0.0000000000000000e+00 0.0000000000000000e+00 0.0000000000000000e+00  0.0000000000000000e+00 0.0000000000000000e+00 0.0000000000000000e+00  0.0000000000000000e+00 0.0000000000000000e+00 0.0000000000000000e+00  0.0000000000000000e+00 0.0000000000000000e+00 0.0000000000000000e+00  0.0000000000000000e+00 0.0000000000000000e+00 0.0000000000000000e+00  0.0000000000000000e+00 0.0000000000000000e+00 0.0000000000000000e+00  1.1320902003192432e+00 1.5776733480867164e-01 0.0000000000000000e+00  0.0000000000000000e+00 0.0000000000000000e+00 0.0000000000000000e+00  0.0000000000000000e+00 0.0000000000000000e+00 0.0000000000000000e+00  0.0000000000000000e+00 0.0000000000000000e+00 0.0000000000000000e+00  0.0000000000000000e+00 0.0000000000000000e+00 0.0000000000000000e+00  0.0000000000000000e+00 0.0000000000000000e+00 0.0000000000000000e+00  0.0000000000000000e+00 0.0000000000000000e+00 0.0000000000000000e+00  0.0000000000000000e+00 0.0000000000000000e+00 0.0000000000000000e+00  0.0000000000000000e+00 0.0000000000000000e+00 0.0000000000000000e+00  0.0000000000000000e+00 0.0000000000000000e+00 0.0000000000000000e+00  0.0000000000000000e+00 0.0000000000000000e+00 0.0000000000000000e+00  0.0000000000000000e+00 0.0000000000000000e+00 0.0000000000000000e+00  0.0000000000000000e+00 0.0000000000000000e+00 0.0000000000000000e+00  0.0000000000000000e+00 0.0000000000000000e+00 0.0000000000000000e+00  0.0000000000000000e+00 0.0000000000000000e+00 0.0000000000000000e+00  0.0000000000000000e+00 0.0000000000000000e+00 0.0000000000000000e+00  0.0000000000000000e+00 0.0000000000000000e+00 0.0000000000000000e+00  0.0000000000000000e+00 0.0000000000000000e+00 0.0000000000000000e+00  0.0000000000000000e+00 0.0000000000000000e+00 0.0000000000000000e+00  1.2229049456628482e+00 1.1751437019288567e-02 0.0000000000000000e+00  1.8106020773632522e-01 2.0504766138198102e-01 0.0000000000000000e+00  9.0903794541015037e-01 -2.0856114357049862e-01 0.0000000000000000e+00  1.4377088606024204e+00 -2.3509732687334359e-01 0.0000000000000000e+00  1.2693035718433372e+00 -4.5198925757109559e-01 0.0000000000000000e+00  6.3823514475460963e-01 2.4997486255086673e-01 0.0000000000000000e+00  4.7033917387673452e-01 -1.1988583468661833e+00 0.0000000000000000e+00  9.4614383458185913e-01 6.1348196091395017e-02 0.0000000000000000e+00  1.3225363138048221e+00 -9.4083334110898628e-02 0.0000000000000000e+00  1.3964276596188490e+00 2.2406420119838705e-02 0.0000000000000000e+00  1.4231183866720740e+00 -6.5969856180963860e-01 0.0000000000000000e+00  1.2087522423069581e+00 1.4458959397624556e-03 0.0000000000000000e+00  1.2639599480593473e+00 8.5477045402565274e-02 0.0000000000000000e+00  2.0915611507680265e+00 -6.7756460502347982e-01 0.0000000000000000e+00  4.2523559905011804e-01 -1.0106684574155043e-01 0.0000000000000000e+00  1.3107048614876040e+00 -3.2164138030642897e-01 0.0000000000000000e+00  1.4022522499741650e+00 1.6768824404584203e-04 0.0000000000000000e+00  1.8537048230750859e+00 -1.8013475624353639e-01 0.0000000000000000e+00  1.3812670401543190e+00 5.1288003784407121e-03 0.0000000000000000e+00  1.3653918742963509e+00 1.9000117686208125e-02 0.0000000000000000e+00  1.1651366066583984e+00 1.1490870755203104e-01 0.0000000000000000e+00  -1.8526536751849209e-04 -6.7802051359366933e-01 0.0000000000000000e+00  7.4335347647696814e-01 -6.8414437737888047e-03 0.0000000000000000e+00  -1.1774756586183164e+00 -4.5743109985850444e-01 0.0000000000000000e+00  1.0813076934234236e+00 1.4352893067394334e-01 0.0000000000000000e+00  2.0878327520654816e+00 1.9149840815911653e-01 0.0000000000000000e+00  2.1058593456743999e+00 7.6560540856222137e-01 0.0000000000000000e+00  8.6228466116846336e-01 2.4077204909655717e-02 0.0000000000000000e+00  8.6410461424754814e-01 5.2157484862611035e-03 0.0000000000000000e+00  9.4563600447648366e-01 -2.1187742026477245e-03 0.0000000000000000e+00  8.3466462255012464e-01 -7.4950976346921843e-03 0.0000000000000000e+00  1.9299439060635148e+00 6.9342027754825641e-01 0.0000000000000000e+00  2.0900518586757730e+00 5.7145790366204408e-01 0.0000000000000000e+00  -2.2813364751979739e-01 -1.5120808705157680e+00 0.0000000000000000e+00  9.6946752362815802e-01 1.0254473112463377e-02 0.0000000000000000e+00  9.0650760361749338e-01 2.5288447982374628e-02 0.0000000000000000e+00  1.3062554844293168e+00 4.7154788222128063e-01 0.0000000000000000e+00  1.1070405009765372e+00 8.0478521617324328e-01 0.0000000000000000e+00  1.7341194742627577e+00 -7.2489250744621370e-01 0.0000000000000000e+00  1.3876674832905140e+00 -6.6159400227962650e-01 0.0000000000000000e+00  -4.3218151641090730e-01 -4.7336094001326806e-01 0.0000000000000000e+00  -2.8064311043599292e-02 5.4213603096376195e-01 0.0000000000000000e+00  1.3509548673678087e+00 1.1328468734914543e+00 0.0000000000000000e+00  -1.0559611318166001e-01 -5.7763391740070757e-01 0.0000000000000000e+00  -4.8462962313028879e-01 2.0058196484928664e-02 0.0000000000000000e+00  5.2786620488299163e-01 -4.3158025776497688e-01 0.0000000000000000e+00  7.7856531397733963e-01 4.6836331266903419e-01 0.0000000000000000e+00  6.2677795105831147e-01 -1.9472325228090656e-01 0.0000000000000000e+00  1.3234667430808165e+00 -3.4171697575144416e-01 0.0000000000000000e+00  6.5625009174196658e-01 0.0000000000000000e+00 0.0000000000000000e+00  8.5615327354335014e-01 -7.5541333106894102e-03 0.0000000000000000e+00  3.6945125663844286e-01 -1.5888665951743297e-01 0.0000000000000000e+00  6.8606304213279612e-01 2.9978744000324971e-02 0.0000000000000000e+00  8.6694215022599797e-01 9.5516691947342192e-02 0.0000000000000000e+00  7.9807120214977434e-01 -1.3810978944279388e-04 0.0000000000000000e+00  1.4478895123587803e+00 6.0070831274848790e-01 0.0000000000000000e+00  9.4731636280164777e-01 4.2219214164157332e-01 0.0000000000000000e+00  1.4530954405241243e+00 -6.3836874237539987e-01 0.0000000000000000e+00  1.8456672226053135e+00 7.1292193199658205e-01 0.0000000000000000e+00  1.2854092894871043e+00 4.1808656807007669e-02 0.0000000000000000e+00  8.5433729087778809e-01 -1.7819969656974553e-02 0.0000000000000000e+00  1.5556027715763356e+00 2.1391804428427441e-01 0.0000000000000000e+00  1.6203502280924631e+00 8.3264927833947966e-01 0.0000000000000000e+00  1.3385131162578452e+00 3.5873963058324237e-01 0.0000000000000000e+00  6.5349861921533570e-01 -5.7787240671359916e-02 0.0000000000000000e+00  1.1867859539740058e+00 8.1610478258685989e-02 0.0000000000000000e+00  9.7876882573116719e-01 8.4574367174993459e-01 0.0000000000000000e+00  1.2117208347608737e+00 -4.3827377331467528e-02 0.0000000000000000e+00  1.1267556737639430e+00 -1.0955276650547309e-01 0.0000000000000000e+00  1.2643658521007215e+00 -4.8341327415287588e-01 0.0000000000000000e+00  7.5233611880293449e-01 -3.3757622314572377e-01 0.0000000000000000e+00  1.5605422029914988e+00 -9.1390967198967643e-01 0.0000000000000000e+00  1.4507155494774886e+00 -5.8277184340657651e-03 0.0000000000000000e+00  1.5342395886890721e+00 -2.0319373924508985e-02 0.0000000000000000e+00  7.7475981891794332e-01 6.1601646282444467e-01 0.0000000000000000e+00  1.5442596555629422e+00 -8.2801961551731662e-01 0.0000000000000000e+00  7.9473272925008731e-01 2.3572524789615587e-01 0.0000000000000000e+00  1.3873860957481343e+00 7.1521461906720185e-01 0.0000000000000000e+00  1.1013069417358106e+00 -2.9604746376645086e-01 0.0000000000000000e+00  1.2847458028513332e+00 1.9088989807991247e-01 0.0000000000000000e+00  1.4722225768137172e+00 1.6350708143628442e-01 0.0000000000000000e+00  1.0485896217003368e+00 8.3101069161644792e-01 0.0000000000000000e+00  1.0356223485619946e+00 -6.9440608790646480e-02 0.0000000000000000e+00  8.8153054354229965e-01 -4.9800074663603860e-01 0.0000000000000000e+00  1.4640441246961537e+00 1.0010549121234031e+00 0.0000000000000000e+00  2.1316690442107493e+00 -5.7023555048261731e-01 0.0000000000000000e+00  6.6126161352622803e-01 -1.5512998672976225e-01 0.0000000000000000e+00  9.0438537150886456e-01 9.7970934502381174e-02 0.0000000000000000e+00  -1.2182987904319696e-01 -3.0539185136192476e-01 0.0000000000000000e+00  1.7451785645205871e+00 -9.5508806188465156e-01 0.0000000000000000e+00  1.8326573262172736e+00 9.3602507572513738e-01 0.0000000000000000e+00  2.0413265773696634e+00 -1.1978039911732383e-01 0.0000000000000000e+00  1.2540759870996263e+00 9.4619670892052934e-02 0.0000000000000000e+00  1.2082358557235673e+00 -7.6091384237243442e-01 0.0000000000000000e+00  6.0896961925999427e-01 -3.2551628896150042e-01 0.0000000000000000e+00  2.0398900362062680e-01 4.0646858241947814e-01 0.0000000000000000e+00  9.1724405824199551e-01 -2.7390819265885136e-01 0.0000000000000000e+00  1.1789213222125374e+00 -5.5100076468777903e-01 0.0000000000000000e+00  1.3019250493472154e+00 1.9627190469460956e-01 0.0000000000000000e+00  5.1053960690629230e-01 1.9028148478270698e-01 0.0000000000000000e+00  4.4996180053153312e-01 1.1985674639324220e-01 0.0000000000000000e+00  1.1660037450717420e+00 -3.2643104651357419e-01 0.0000000000000000e+00  1.0561361512193341e+00 -2.9867575120891303e-03 0.0000000000000000e+00  1.1435174748404051e+00 1.6402051072318242e-02 0.0000000000000000e+00  1.4094828047583727e+00 7.9826171125576506e-01 0.00000000000000