<?xml version="1.0"?>
<VTKFile type="UnstructuredGrid"  version="0.1"  >
<UnstructuredGrid>
<Piece  NumberOfPoints="4269" NumberOfCells="8234">
<Points>
<DataArray  type="Float64"  NumberOfComponents="3"  format="ascii">0 1 0  0 0 0  7.5 0 0  7.5 1 0  1.197537668119028 0.5812868930080463 0  1.2 0.55 0  1.197537668119028 0.5187131069919538 0  1.190211303259031 0.4881966011250105 0  1.178201304837674 0.4592019000520907 0  1.161803398874989 0.4324429495415054 0  1.141421356237309 0.4085786437626905 0  1.117557050458495 0.3881966011250105 0  1.090798099947909 0.3717986951623264 0  1.06180339887499 0.3597886967409693 0  1.031286893008046 0.3524623318809725 0  1 0.35 0  0.9687131069919538 0.3524623318809725 0  0.9381966011250105 0.3597886967409694 0  0.9092019000520906 0.3717986951623264 0  0.8824429495415054 0.3881966011250105 0  0.8585786437626904 0.4085786437626905 0  0.8381966011250105 0.4324429495415054 0  0.8217986951623264 0.4592019000520907 0  0.8097886967409692 0.4881966011250107 0  0.8024623318809725 0.5187131069919539 0  0.8 0.55 0  0.8024623318809725 0.5812868930080463 0  0.8097886967409693 0.6118033988749896 0  0.8217986951623264 0.6407980999479095 0  0.8381966011250105 0.6675570504584947 0  0.8585786437626906 0.6914213562373096 0  0.8824429495415054 0.7118033988749896 0  0.9092019000520907 0.7282013048376736 0  0.9381966011250106 0.7402113032590307 0  0.9687131069919539 0.7475376681190276 0  1 0.75 0  1.031286893008046 0.7475376681190276 0  1.06180339887499 0.7402113032590307 0  1.090798099947909 0.7282013048376736 0  1.117557050458495 0.7118033988749896 0  1.141421356237309 0.6914213562373095 0  1.161803398874989 0.6675570504584947 0  1.178201304837674 0.6407980999479094 0  1.190211303259031 0.6118033988749896 0  3.75 0 0  3.75 1 0  1.875 0 0  1.875 1 0  0.9375 0 0  0.9375 1 0  1.40625 1 0  5.625 1 0  5.625 0 0  2.8125 1 0  2.8125 0 0  4.6875 0 0  4.6875 1 0  6.5625 0 0  6.5625 1 0  5.15625 0.5 0  4.21875 0.5 0  2.34375 0.5 0  3.28125 0.5 0  6.09375 0.5 0  7.5 0.5 0  6.897916666666666 0.5 0  1.842708333333333 0.5 0  0 0.5 0  0.46875 0 0  5.625 0.5302734375 0  7.03125 0 0  6.09375 1 0  2.8125 0.4697265625 0  3.28125 0 0  2.34375 1 0  2.34375 0 0  3.75 0.4697265625 0  4.21875 0 0  4.21875 1 0  4.6875 0.5302734375 0  3.28125 1 0  5.15625 0 0  6.09375 0 0  5.15625 1 0  0.46875 1 0  1.40625 0 0  7.03125 1 0  0.3954638734376499 0.5975780249976004 0  6.495833333333334 0.4072265624999998 0  5.859375 0.25 0  4.905729166666666 0.26513671875 0  4.453125 0.25 0  3.531770833333333 0.73486328125 0  3.968229166666667 0.73486328125 0  2.594270833333333 0.73486328125 0  3.030729166666667 0.73486328125 0  6.328125 0.75 0  7.198958333333334 0.3125000000000002 0  7.198958333333334 0.6874999999999998 0  5.390625 0.25 0  0 0.25 0  2.109375 0.75 0  2.109375 0.25 0  1.51921323205749 0.3418883887525936 0  1.522346610178253 0.6811769608297746 0  5.375456746419271 0.75 0  4.921875 0.76513671875 0  4.437956746419271 0.75 0  3.984375 0.23486328125 0  3.500456746419271 0.25 0  2.578125 0.23486328125 0  3.046875 0.23486328125 0  5.874543253580729 0.75 0  6.642123189445656 0.6909095493086836 0  6.746354166666666 0.2391688368055553 0  0.3197109619185111 0.2850049285972083 0  6.328125 0 0  0.6313375889370429 0.2351325552547357 0  0 0.75 0  6.252283381534729 0.2693808819694041 0  0.234375 1 0  6.948437500000001 0.7543055555555555 0  0.5934018769555939 0.7694151657947577 0  1.858854166666667 0.75 0  1.858854166666667 0.25 0  1.640625 0 0  2.093229166666667 0.5 0  7.5 0.25 0  3.282227579752604 0.75 0  7.5 0.75 0  1.171875 0 0  1.303539853147731 0.2235426933121065 0  5.148177083333333 0.2575683593749998 0  2.351822916666667 0.742431640625 0  1.640625 1 0  4.202380413457425 0.7645435094236485 0  3.047822985053062 0.4701848030090332 0  2.577177014946938 0.4701848030090332 0  4.672792740482199 0.76513671875 0  4.922822985053062 0.5298151969909668 0  5.390593497949761 0.5156244924311331 0  5.610292740482199 0.76513671875 0  3.516602579752604 0.5 0  4.45496853898097 0.4865915990446593 0  5.85753146101903 0.4865915990446593 0  3.749511210123698 0.23486328125 0  3.983397420247396 0.4999999999999999 0  2.343497975411212 0.2346270081980111 0  4.219002024588788 0.2346270081980111 0  0.703125 0 0  2.8125 0.2343755075688669 0  3.046875 0 0  2.578125 0 0  3.515625 0 0  3.984375 0 0  4.453125 1 0  5.390625 1 0  2.109375 0 0  2.109375 1 0  5.625 0.2921402030705575 0  5.390625 0 0  7.265625 0 0  6.796875 0 0  6.328125 1 0  3.046875 1 0  2.578125 1 0  3.984375 1 0  3.515625 1 0  4.453125 0 0  4.921875 0 0  5.859375 0 0  0.703125 1 0  1.171875 1 0  7.265625 1 0  4.921875 1 0  5.859375 1 0  0.234375 0 0  6.796875 1 0  6.980310975276531 0.2285890127127066 0  5.149170481934885 0.772689292163473 0  3.274170481934884 0.2273107078365268 0  6.101334126790364 0.7722468376159667 0  4.678005340872584 0.3000799877067239 0  2.8125 0.6921051326382495 0  3.75 0.6921051326382495 0  0.3515624999999999 0.8134571721668546 0  0.4990405774417521 0.4070099317153735 0  0.1789273931360182 0.625 0  6.31239060814315 0.5298877111157968 0  6.456979773992304 0.1917956348713352 0  6.699870808919271 0.4406293402777773 0  1.337539480965883 0.7944303676599538 0  6.058675797563041 0.2019812164653516 0  0.8203125 0.1643029084422534 0  0.1480856513011711 0.375 0  1.090769294689562 0.1719186776982972 0  7.291088163206459 0.5 0  7.094502414936563 0.5197902199074071 0  0.6046212059042245 0.5730066483871106 0  1.707231580809486 0.6342709161352207 0  1.685961352504593 0.8193269193390785 0  1.374721602852827 0.4600373025865813 0  6.486415510043844 0.5916440776477192 0  1.5234375 0.1508863828685116 0  1.707925830421689 0.3657739208189008 0  0.1674513225045584 0.8278776664019765 0  7.138268756771176 0.1438183366439137 0  7.1484375 0.8616388888888887 0  7.328562530764119 0.819498462930605 0  4.101073710123698 0.3678637200736647 0  1.693878467219965 0.1911955120941053 0  1.577566745468488 0.5110082404081502 0  6.6796875 0.8653871806883484 0  6.498039504430512 0.825568433346395 0  0.7562556668576472 0.8333197949571929 0  4.101045914668806 0.6255195807449272 0  5.030745188395182 0.382829047309028 0  2.476364945868651 0.6095868094762166 0  2.729359843907322 0.8460525663191247 0  2.9296875 0.8740763101564099 0  3.163518307559356 0.6254622797994247 0  3.666859843907322 0.8460525663191247 0  3.8671875 0.8740763101564099 0  4.8046875 0.12592368984359 0  3.14936031382311 0.8606990583876851 0  2.4609375 0.8747622921397776 0  5.023140791101972 0.1392266772452574 0  0 0.125 0  0.1759922923594607 0.1727589856739889 0  4.5703125 0.125 0  7.327755777818006 0.1766156770456191 0  5.5078125 0.125 0  5.719712725029036 0.1460701015352787 0  4.327848962028002 0.3674169956512513 0  5.982681121544351 0.3692637923021713 0  3.398926289876302 0.6245417594909667 0  5.281756792511996 0.3827993367299961 0  2.226822645963271 0.6252438868405666 0  2.234390064317166 0.8676616584526566 0  5.2734375 0.125 0  1.96796875 0.382568359375 0  2.234651037971999 0.3674169956512511 0  1.984114583333333 0.132568359375 0  1.9921875 0.875 0  1.984114583333333 0.632568359375 0  5.748733794462357 0.8678269127183313 0  3.3984375 0.875456329184688 0  1.512925924995415 0.8582958012121853 0  1.359299372802969 0.6275861864990343 0  4.810521420483513 0.4041767793635395 0  0.2996213306116602 0.455339710363317 0  5.999933717403708 0.6388425470751088 0  5.250033449003657 0.6388713364551682 0  3.631676045992918 0.3525406652400928 0  4.3359375 0.8816499670325881 0  4.343577437052484 0.6116511299909198 0  3.375033449003656 0.3611286635448316 0  5.763152151652243 0.6249404690537395 0  4.549347848347757 0.6249404690537396 0  5.5004588702411 0.6403667365776566 0  5.976118394847484 0.8816230218343086 0  5.054722486865804 0.6338007028640954 0  3.164542163493752 0.3520519332736524 0  2.445407482032355 0.3672168403687257 0  4.8046875 0.882568359375 0  4.1015625 0.117431640625 0  2.4609375 0.117431640625 0  2.695556894938151 0.3520510350344335 0  2.929443105061849 0.3520510350344335 0  3.881979231817319 0.3670559016511187 0  3.8671875 0.117431640625 0  4.805389247695744 0.6470047893641744 0  3.399370721942191 0.1184066543556767 0  5.274370721942192 0.881593345644323 0  3.618253274934649 0.1316869186284249 0  2.6953125 0.1171877537844335 0  2.9296875 0.1171877537844335 0  2.21873344389451 0.125 0  4.3359375 0.1171877625080073 0  0.6659898565672709 0.3986593551313873 0  7.363359022954956 0.3481046411219251 0  7.363359022954956 0.6518953588780749 0  5.487719392831826 0.3828237631077121 0  2.695054578344725 0.5809158475691247 0  2.944553877887707 0.5964065668438148 0  0.3515625 0.1201898858097106 0  5.5078125 1 0  4.5703125 1 0  5.031746201297604 0.882568359375 0  3.1640625 0 0  6.2109375 1 0  6.186845385763124 0.6336356480571081 0  4.1015625 1 0  6.810399074069772 0.6495574751396682 0  0.4740615253480797 0.2509287743856873 0  7.052064303830151 0.3684417917792242 0  6.195177069665382 0.1216488332168849 0  5.72300154718324 0.4112068202852788 0  3.879157465495092 0.6111892850691246 0  3.645760045247695 0.5809158475691247 0  6.868257400485771 0.3427840810237202 0  6.612030892260864 0.1521752713064389 0  6.615666885941117 0.3151079644097221 0  4.04296875 0.8633718902669071 0  1.183031453639096 0.8486801864185936 0  6.9140625 0 0  6.859079526500421 0.1398292786950638 0  6.808232443325651 0.7957411753922057 0  6.9140625 1 0  4.544955211100143 0.3675874343205077 0  1.0546875 1 0  6.122060236165557 0.3316791557072867 0  0.5859375 0 0  5.9765625 0 0  5.44921875 0.870984788733638 0  4.51171875 0.870984788733638 0  0.7608354256382215 0.2931261274224557 0  6.386875332239937 0.3156583003094978 0  6.985654756850997 0.6147408423643147 0  6.223797257919172 0.8535621912121121 0  5.936822413218736 0.1338376546337823 0  6.23933008800134 0.4095573603773768 0  0.5414022462152697 0.1305482677949959 0  6.331360438104348 0.1370086318183389 0  0.956404929269873 0.1374266563647954 0  1.2890625 1 0  0.691305981127761 0.6764829884281737 0  3.531251607241209 0.8678916320952239 0  2.59787442813022 
[...]
<PointData  Vectors="f_71627"> 
<DataArray  type="Float64"  Name="f_71627"  NumberOfComponents="3" format="ascii">0.0000000000000000e+00 0.0000000000000000e+00 0.0000000000000000e+00  0.0000000000000000e+00 0.0000000000000000e+00 0.0000000000000000e+00  0.0000000000000000e+00 0.0000000000000000e+00 0.0000000000000000e+00  0.0000000000000000e+00 0.0000000000000000e+00 0.0000000000000000e+00  0.0000000000000000e+00 0.0000000000000000e+00 0.0000000000000000e+00  0.0000000000000000e+00 0.0000000000000000e+00 0.0000000000000000e+00  0.0000000000000000e+00 0.0000000000000000e+00 0.0000000000000000e+00  0.0000000000000000e+00 0.0000000000000000e+00 0.0000000000000000e+00  0.0000000000000000e+00 0.0000000000000000e+00 0.0000000000000000e+00  0.0000000000000000e+00 0.0000000000000000e+00 0.0000000000000000e+00  0.0000000000000000e+00 0.0000000000000000e+00 0.0000000000000000e+00  0.0000000000000000e+00 0.0000000000000000e+00 0.0000000000000000e+00  0.0000000000000000e+00 0.0000000000000000e+00 0.0000000000000000e+00  0.0000000000000000e+00 0.0000000000000000e+00 0.0000000000000000e+00  0.0000000000000000e+00 0.0000000000000000e+00 0.0000000000000000e+00  0.0000000000000000e+00 0.0000000000000000e+00 0.0000000000000000e+00  0.0000000000000000e+00 0.0000000000000000e+00 0.0000000000000000e+00  0.0000000000000000e+00 0.0000000000000000e+00 0.0000000000000000e+00  0.0000000000000000e+00 0.0000000000000000e+00 0.0000000000000000e+00  0.0000000000000000e+00 0.0000000000000000e+00 0.0000000000000000e+00  0.0000000000000000e+00 0.0000000000000000e+00 0.0000000000000000e+00  0.0000000000000000e+00 0.0000000000000000e+00 0.0000000000000000e+00  0.0000000000000000e+00 0.0000000000000000e+00 0.0000000000000000e+00  0.0000000000000000e+00 0.0000000000000000e+00 0.0000000000000000e+00  0.0000000000000000e+00 0.0000000000000000e+00 0.0000000000000000e+00  0.0000000000000000e+00 0.0000000000000000e+00 0.0000000000000000e+00  0.0000000000000000e+00 0.0000000000000000e+00 0.0000000000000000e+00  0.0000000000000000e+00 0.0000000000000000e+00 0.0000000000000000e+00  0.0000000000000000e+00 0.0000000000000000e+00 0.0000000000000000e+00  0.0000000000000000e+00 0.0000000000000000e+00 0.0000000000000000e+00  0.0000000000000000e+00 0.0000000000000000e+00 0.0000000000000000e+00  0.0000000000000000e+00 0.0000000000000000e+00 0.0000000000000000e+00  0.0000000000000000e+00 0.0000000000000000e+00 0.0000000000000000e+00  0.0000000000000000e+00 0.0000000000000000e+00 0.0000000000000000e+00  0.0000000000000000e+00 0.0000000000000000e+00 0.0000000000000000e+00  0.0000000000000000e+00 0.0000000000000000e+00 0.0000000000000000e+00  0.0000000000000000e+00 0.0000000000000000e+00 0.0000000000000000e+00  0.0000000000000000e+00 0.0000000000000000e+00 0.0000000000000000e+00  0.0000000000000000e+00 0.0000000000000000e+00 0.0000000000000000e+00  0.0000000000000000e+00 0.0000000000000000e+00 0.0000000000000000e+00  0.0000000000000000e+00 0.0000000000000000e+00 0.0000000000000000e+00  0.0000000000000000e+00 0.0000000000000000e+00 0.0000000000000000e+00  0.0000000000000000e+00 0.0000000000000000e+00 0.0000000000000000e+00  0.0000000000000000e+00 0.0000000000000000e+00 0.0000000000000000e+00  0.0000000000000000e+00 0.0000000000000000e+00 0.0000000000000000e+00  0.0000000000000000e+00 0.0000000000000000e+00 0.0000000000000000e+00  0.0000000000000000e+00 0.0000000000000000e+00 0.0000000000000000e+00  0.0000000000000000e+00 0.0000000000000000e+00 0.0000000000000000e+00  0.0000000000000000e+00 0.0000000000000000e+00 0.0000000000000000e+00  0.0000000000000000e+00 0.0000000000000000e+00 0.0000000000000000e+00  0.0000000000000000e+00 0.0000000000000000e+00 0.0000000000000000e+00  0.0000000000000000e+00 0.0000000000000000e+00 0.0000000000000000e+00  0.0000000000000000e+00 0.0000000000000000e+00 0.0000000000000000e+00  0.0000000000000000e+00 0.0000000000000000e+00 0.0000000000000000e+00  0.0000000000000000e+00 0.0000000000000000e+00 0.0000000000000000e+00  0.0000000000000000e+00 0.0000000000000000e+00 0.0000000000000000e+00  0.0000000000000000e+00 0.0000000000000000e+00 0.0000000000000000e+00  0.0000000000000000e+00 0.0000000000000000e+00 0.0000000000000000e+00  0.0000000000000000e+00 0.0000000000000000e+00 0.0000000000000000e+00  1.1092094661961664e+00 1.0956428822477468e-03 0.0000000000000000e+00  1.1130008803952816e+00 -1.7611617432724406e-03 0.0000000000000000e+00  1.7660052527506527e+00 -3.6205459539106075e-02 0.0000000000000000e+00  1.1008571920860433e+00 -9.7969299480853173e-02 0.0000000000000000e+00  1.1078974072765575e+00 -7.1800890462826185e-04 0.0000000000000000e+00  1.5000002088675848e+00 0.0000000000000000e+00 0.0000000000000000e+00  1.1884916794760083e+00 -3.3717126103193370e-03 0.0000000000000000e+00  1.0559472890492827e+00 -7.7548421335295625e-01 0.0000000000000000e+00  1.5000002088675848e+00 0.0000000000000000e+00 0.0000000000000000e+00  0.0000000000000000e+00 0.0000000000000000e+00 0.0000000000000000e+00  1.1157707296711417e+00 -2.7369888016055182e-04 0.0000000000000000e+00  0.0000000000000000e+00 0.0000000000000000e+00 0.0000000000000000e+00  0.0000000000000000e+00 0.0000000000000000e+00 0.0000000000000000e+00  1.1509717938897235e+00 6.1682671078755313e-03 0.0000000000000000e+00  0.0000000000000000e+00 0.0000000000000000e+00 0.0000000000000000e+00  0.0000000000000000e+00 0.0000000000000000e+00 0.0000000000000000e+00  0.0000000000000000e+00 0.0000000000000000e+00 0.0000000000000000e+00  1.1066467853031867e+00 -1.4599027431897843e-02 0.0000000000000000e+00  0.0000000000000000e+00 0.0000000000000000e+00 0.0000000000000000e+00  0.0000000000000000e+00 0.0000000000000000e+00 0.0000000000000000e+00  1.1128325729764461e+00 4.0330381748962838e-04 0.0000000000000000e+00  0.0000000000000000e+00 0.0000000000000000e+00 0.0000000000000000e+00  0.0000000000000000e+00 0.0000000000000000e+00 0.0000000000000000e+00  0.0000000000000000e+00 0.0000000000000000e+00 0.0000000000000000e+00  0.0000000000000000e+00 0.0000000000000000e+00 0.0000000000000000e+00  0.0000000000000000e+00 0.0000000000000000e+00 0.0000000000000000e+00  0.0000000000000000e+00 0.0000000000000000e+00 0.0000000000000000e+00  0.0000000000000000e+00 0.0000000000000000e+00 0.0000000000000000e+00  1.3597924938985411e+00 -3.6893463112433009e-02 0.0000000000000000e+00  1.1360537175762360e+00 -6.2563369673132221e-03 0.0000000000000000e+00  1.1130648398349974e+00 5.0299476381793174e-03 0.0000000000000000e+00  1.0979133863052231e+00 8.3130963816727295e-04 0.0000000000000000e+00  1.0964203204655087e+00 1.2523078539543255e-03 0.0000000000000000e+00  1.1373745026104232e+00 -2.4408775208879473e-02 0.0000000000000000e+00  1.1182708944008999e+00 -4.3465719784450086e-03 0.0000000000000000e+00  9.2218884082542141e-01 7.7433239926123065e-01 0.0000000000000000e+00  1.3928218162740993e+00 -2.8406323380212978e-01 0.0000000000000000e+00  1.1127297558860672e+00 7.0613066736651016e-04 0.0000000000000000e+00  8.0977077614217952e-01 -1.0217439708620087e-03 0.0000000000000000e+00  9.5804284985453148e-01 1.3653761807380614e-02 0.0000000000000000e+00  1.1003976269217803e+00 -9.1786840846738325e-04 0.0000000000000000e+00  1.1250001566506886e+00 0.0000000000000000e+00 0.0000000000000000e+00  6.3382953493726424e-01 2.5698758330145927e-01 0.0000000000000000e+00  1.9889243293502703e+00 1.5572534627527931e-01 0.0000000000000000e+00  1.6118527040737471e+00 8.5480203050251691e-01 0.0000000000000000e+00  9.3611303627983400e-01 3.1380044047577153e-02 0.0000000000000000e+00  1.1115921495270236e+00 1.5764729347613464e-03 0.0000000000000000e+00  1.1148035439651252e+00 3.2274358769933966e-03 0.0000000000000000e+00  1.1145414724411462e+00 1.6790874644251528e-04 0.0000000000000000e+00  1.1023373710895414e+00 -4.7573079880649828e-03 0.0000000000000000e+00  1.0736753384418867e+00 -2.6220713527633527e-02 0.0000000000000000e+00  8.7767296021084173e-01 -1.9011110595031339e-01 0.0000000000000000e+00  9.5651047121176247e-01 -8.5569970324837569e-02 0.0000000000000000e+00  1.1137585155329981e+00 -4.0880453595078324e-04 0.0000000000000000e+00  1.0939073294677077e+00 -1.1876681148218571e-03 0.0000000000000000e+00  1.1170516781228308e+00 -1.0795334996812223e-02 0.0000000000000000e+00  1.2369543458412291e+00 -9.3660403143011758e-02 0.0000000000000000e+00  0.0000000000000000e+00 0.0000000000000000e+00 0.0000000000000000e+00  1.2663382508243881e+00 -3.1023299744811672e-01 0.0000000000000000e+00  1.1250001566506886e+00 0.0000000000000000e+00 0.0000000000000000e+00  1.1243059755418157e+00 1.5583662055995806e-03 0.0000000000000000e+00  0.0000000000000000e+00 0.0000000000000000e+00 0.0000000000000000e+00  1.2577459989992876e+00 -2.2209476963682096e-03 0.0000000000000000e+00  1.0252545661182160e+00 2.0117272077650222e-01 0.0000000000000000e+00  1.7100191785120580e+00 -1.2141650861355022e+00 0.0000000000000000e+00  1.3660236219410502e+00 -1.7413193042226111e-01 0.0000000000000000e+00  0.0000000000000000e+00 0.0000000000000000e+00 0.0000000000000000e+00  1.5234859470952105e+00 -5.7291355080825423e-01 0.0000000000000000e+00  1.1250001566506886e+00 0.0000000000000000e+00 0.0000000000000000e+00  1.1836498989527751e+00 -6.3390302102385110e-02 0.0000000000000000e+00  1.1250001566506886e+00 0.0000000000000000e+00 0.0000000000000000e+00  0.0000000000000000e+00 0.0000000000000000e+00 0.0000000000000000e+00  2.1557920079994930e+00 1.9284422917937671e-01 0.0000000000000000e+00  1.1038976983338862e+00 1.3281082847521747e-03 0.0000000000000000e+00  1.9833770257538766e-01 1.7725808274389984e-01 0.0000000000000000e+00  0.0000000000000000e+00 0.0000000000000000e+00 0.0000000000000000e+00  1.1190053612160149e+00 -2.8021543813611127e-04 0.0000000000000000e+00  1.0019774264014270e+00 -1.7906700761076041e-01 0.0000000000000000e+00  1.8726951746956566e+00 8.2286487347210546e-01 0.0000000000000000e+00  1.1157537079174253e+00 6.7862823328800471e-04 0.0000000000000000e+00  1.1088089026551182e+00 7.3339276283194033e-04 0.0000000000000000e+00  1.1118990756814304e+00 1.8499425569548063e-03 0.0000000000000000e+00  1.1121566151624940e+00 1.9649070087928004e-03 0.0000000000000000e+00  1.1129411843956152e+00 -3.7742527530757616e-02 0.0000000000000000e+00  1.1091835230331177e+00 1.0613400912092836e-04 0.0000000000000000e+00  1.1181421120443560e+00 -8.3254908623299755e-04 0.0000000000000000e+00  1.0941315143702128e+00 -1.0807139481288808e-02 0.0000000000000000e+00  1.1147141179707034e+00 -5.0538145785304234e-03 0.0000000000000000e+00  1.7210455886226219e+00 6.1812826218946548e-01 0.0000000000000000e+00  1.0975637363671780e+00 -1.9080087878294428e-03 0.0000000000000000e+00  0.0000000000000000e+00 0.0000000000000000e+00 0.0000000000000000e+00  8.4333036739076650e-01 -2.4255600891216525e-01 0.0000000000000000e+00  0.0000000000000000e+00 0.0000000000000000e+00 0.0000000000000000e+00  0.0000000000000000e+00 0.0000000000000000e+00 0.0000000000000000e+00  0.0000000000000000e+00 0.0000000000000000e+00 0.0000000000000000e+00  0.0000000000000000e+00 0.0000000000000000e+00 0.0000000000000000e+00  0.0000000000000000e+00 0.0000000000000000e+00 0.0000000000000000e+00  0.0000000000000000e+00 0.0000000000000000e+00 0.0000000000000000e+00  0.0000000000000000e+00 0.0000000000000000e+00 0.0000000000000000e+00  0.0000000000000000e+00 0.0000000000000000e+00 0.0000000000000000e+00  1.1034563234449446e+00 -1.6947198144743271e-03 0.0000000000000000e+00  0.0000000000000000e+00 0.0000000000000000e+00 0.0000000000000000e+00  0.0000000000000000e+00 0.0000000000000000e+00 0.0000000000000000e+00  0.0000000000000000e+00 0.0000000000000000e+00 0.0000000000000000e+00  0.0000000000000000e+00 0.0000000000000000e+00 0.0000000000000000e+00  0.0000000000000000e+00 0.0000000000000000e+00 0.0000000000000000e+00  0.0000000000000000e+00 0.0000000000000000e+00 0.0000000000000000e+00  0.0000000000000000e+00 0.0000000000000000e+00 0.0000000000000000e+00  0.0000000000000000e+00 0.0000000000000000e+00 0.0000000000000000e+00  0.0000000000000000e+00 0.0000000000000000e+00 0.0000000000000000e+00  0.0000000000000000e+00 0.0000000000000000e+00 0.0000000000000000e+00  0.0000000000000000e+00 0.0000000000000000e+00 0.0000000000000000e+00  0.0000000000000000e+00 0.0000000000000000e+00 0.0000000000000000e+00  0.0000000000000000e+00 0.0000000000000000e+00 0.0000000000000000e+00  0.0000000000000000e+00 0.0000000000000000e+00 0.0000000000000000e+00  0.0000000000000000e+00 0.0000000000000000e+00 0.0000000000000000e+00  0.0000000000000000e+00 0.0000000000000000e+00 0.0000000000000000e+00  0.0000000000000000e+00 0.0000000000000000e+00 0.0000000000000000e+00  0.0000000000000000e+00 0.0000000000000000e+00 0.0000000000000000e+00  1.1603179576967952e+00 -4.3355938565338865e-04 0.0000000000000000e+00  1.1128863596881555e+00 3.7150452944196351e-03 0.0000000000000000e+00  1.0298815631402973e+00 -4.3222721147642612e-02 0.0000000000000000e+00  1.1147260472594613e+00 -3.9089236351937525e-03 0.0000000000000000e+00  1.1022705456123736e+00 -2.9464129879720248e-04 0.0000000000000000e+00  1.2423802453434254e+00 3.6619251242018186e-01 0.0000000000000000e+00  1.1192903173255351e+00 -1.3251146247417410e-02 0.0000000000000000e+00  8.9516763858852266e-01 1.7836459661496148e-02 0.0000000000000000e+00  1.3618334466191209e+00 -1.8053852972866674e-01 0.0000000000000000e+00  1.3926416547429776e+00 -2.6167988649581815e-02 0.0000000000000000e+00  1.1083721434504867e+00 -2.0687922311768258e-03 0.0000000000000000e+00  1.1356721420420604e+00 -2.2631190881169357e-03 0.0000000000000000e+00  1.1685774545340382e+00 -7.4767426953935394e-03 0.0000000000000000e+00  1.7042169401334710e+00 1.0482346407139498e-01 0.0000000000000000e+00  1.1171481513007366e+00 -2.2680452159632289e-03 0.0000000000000000e+00  1.4734696291614435e+00 -3.3950605565563763e-01 0.0000000000000000e+00  1.4049824992070599e+00 -3.9026052895423914e-02 0.0000000000000000e+00  2.0025818414983818e+00 -9.0330965004242869e-02 0.0000000000000000e+00  1.3904644576899226e+00 -2.0578048867953203e-04 0.0000000000000000e+00  1.3548308395289625e+00 2.9024010207948274e-03 0.0000000000000000e+00  1.1405787338326034e+00 -3.4880482947221729e-04 0.0000000000000000e+00  1.4683020859739160e+00 -6.4875195504287941e-01 0.0000000000000000e+00  2.0703281735643664e+00 -8.3317342660112048e-01 0.0000000000000000e+00  -4.0025030657765359e-02 3.7391807503489327e-01 0.0000000000000000e+00  1.1141026557335276e+00 -2.3818842477486553e-03 0.0000000000000000e+00  1.6014413733072037e+00 2.4255651075691642e-01 0.0000000000000000e+00  2.9538137503752415e-01 6.2873554303349755e-01 0.0000000000000000e+00  8.4934113378534781e-01 -8.6020087121866460e-03 0.0000000000000000e+00  9.2340108864585313e-01 -3.5072458978722145e-03 0.0000000000000000e+00  1.0319897953029811e+00 -4.0258966867376894e-03 0.0000000000000000e+00  7.7061298818831980e-01 -3.9354641137375546e-03 0.0000000000000000e+00  1.1065664082471205e+00 -2.1014096533212667e-03 0.0000000000000000e+00  1.3899626077991625e+00 1.4596965324834318e-01 0.0000000000000000e+00  -9.6499331306897740e-01 1.0567323570960216e+00 0.0000000000000000e+00  1.1266729097922248e+00 6.9459482222069659e-03 0.0000000000000000e+00  1.0519121324474363e+00 -3.8188837069389023e-03 0.0000000000000000e+00  1.1214231797765890e+00 4.0697594288508976e-01 0.0000000000000000e+00  1.1192682663330467e+00 -3.0689318656610073e-03 0.0000000000000000e+00  1.1079048477116995e+00 1.0028798669332669e-03 0.0000000000000000e+00  1.2588924014269283e+00 1.0982584914973506e+00 0.0000000000000000e+00  1.1598353122120855e+00 2.3157451907785204e-01 0.0000000000000000e+00  1.3109339180794226e+00 -6.0928148481015167e-02 0.0000000000000000e+00  1.1811823879774987e+00 -1.6109957475998263e-01 0.0000000000000000e+00  1.1049517371600339e+00 -7.4377366285967184e-03 0.0000000000000000e+00  1.0744910924871482e+00 -2.9742272833173100e-03 0.0000000000000000e+00  1.0634971258710062e+00 1.1525212116912981e-03 0.0000000000000000e+00  1.2051685799124765e+00 -4.5441680076178152e-02 0.0000000000000000e+00  3.4665724253129288e-01 3.1058911439626297e-01 0.0000000000000000e+00  1.0811939246499231e+00 2.1195190584695329e-03 0.0000000000000000e+00  6.5625009137956825e-01 0.0000000000000000e+00 0.0000000000000000e+00  8.6786022577083355e-01 -3.7254570108598853e-02 0.0000000000000000e+00  1.0597841689326954e+00 1.0323128940072780e-04 0.0000000000000000e+00  4.9049959181270436e-01 2.6384772712946050e-02 0.0000000000000000e+00  1.0687211198145457e+00 2.1044431530345175e-03 0.0000000000000000e+00  1.0938188557809811e+00 -3.2133806313575752e-03 0.0000000000000000e+00  1.1047789352078534e+00 -1.5287027611163044e-03 0.0000000000000000e+00  1.0980155989667810e+00 -2.1232018528258359e-03 0.0000000000000000e+00  1.1416729437528506e+00 -5.8837990544541661e-02 0.0000000000000000e+00  1.1091295680564808e+00 1.3947875097850733e-03 0.0000000000000000e+00  1.2098280868267239e+00 -2.4991478132819023e-01 0.0000000000000000e+00  1.6622592604076913e-01 1.0371743189457647e-01 0.0000000000000000e+00  1.0705625825422440e+00 -4.0022896930177299e-04 0.0000000000000000e+00  8.0094847227092669e-01 -8.2254583678797577e-01 0.0000000000000000e+00  1.6971188891342950e+00 8.5428445060115446e-02 0.0000000000000000e+00  1.5195950677992254e+00 5.2094064032552380e-02 0.0000000000000000e+00  -5.8253553745274765e-02 -9.9306619012436079e-02 0.0000000000000000e+00  1.9692517519559394e+00 -1.0339584646344444e+00 0.0000000000000000e+00  1.0889279637747011e+00 1.7106299736449916e-03 0.0000000000000000e+00  1.1148835945461504e+00 -1.3198042431638926e-02 0.0000000000000000e+00  2.2579156860700924e+00 -3.6290535270796154e-01 0.0000000000000000e+00  -6.1741596019260336e-01 7.7610817094535700e-01 0.0000000000000000e+00  1.1067082895630358e+00 2.1157725573664764e-04 0.0000000000000000e+00  1.4582706819002067e+00 -7.8300808169938743e-02 0.0000000000000000e+00  1.1082788944205799e+00 -9.8701973425086476e-04 0.0000000000000000e+00  1.1122122642843493e+00 7.4328296394196233e-04 0.0000000000000000e+00  1.0957636759226161e+00 -1.9655932871464988e-02 0.0000000000000000e+00  1.0600494207706390e+00 2.2834428543335090e-03 0.0000000000000000e+00  1.1186330662148345e+00 -1.5913295914825342e-03 0.0000000000000000e+00  1.0763969678424452e+00 -5.4284629773101431e-02 0.0000000000000000e+00  1.1112770029125230e+00 8.0406827641503497e-06 0.0000000000000000e+00  1.1132026162923505e+00 3.9452150494852917e-04 0.0000000000000000e+00  1.1168862836674147e+00 -1.3979375287710139e-03 0.0000000000000000e+00  1.0774470428897331e+00 1.0591614181106846e-03 0.0000000000000000e+00  1.1163978211092973e+00 1.2146843124168317e-03 0.0000000000000000e+00  1.0245856408733021e+00 -1.0052417722688936e-01 0.0000000000000000e+00  2.4142829439289284e+00 9.1768954986818974e-01 0.0000000000000000e+00  1.0505580566460830e+00 2.4501665344562299e-03 0.0000000000000000e+00  1.0443124713813128e+00 -3.2289835309176366e-03 0.0000000000000000e+00  2.5149266845847501e-01 -3.9595726058371666e-02 0.0000000000000000e+00  1.2905251015840034e+00 -1.2650387225516291e-01 0.0000000000000000e+00  9.7266112146511507e-01 -1.4661545966839090e-01 0.0000000000000000e+00  1.1040087151390638e+00 -7.9601111466921920e-03 0.0000000000000000e+00  1.0439685602254243e+00 -2.8957762116778867e-03 0.0000000000000000e+00  1.1163116969815907e+00 7.5154901245316687e-04 0.0000000000000000e+00  1.0076811267659318e+00 -1.0998266802110792e-02 0.0000000000000000e+00  1.0582797622758027e+00 3.6257883676185177e-03 0.0000000000000000e+00  1.0468220071372729e+00 -6.6829198868840946e-03 0.0000000000000000e+00  5.0273840747112974e-01 -1.7866178051137352e-01 0.0000000000000000e+00  8.2790889358058062e-01 -5.6062868521002791e-02 0.0000000000000000e+00  8.5102477304042401e-01 2.0119742932299212e-01 0.0000000000000000e+00  1.0472091306877429e+00 -1.3374660989497248e-03 0.0000000000000000e+00  1.2436229074068590e+00 -4.3502955076018712e-01 0.0000000000000000e+00  9.9602687939690282e-01 -8.5450989601902443e-03 0.0000000000000000e+00  1.0810828978233493e+00 1.3488849194799550e-02 0.0000000000000000e+00  1.1087613310947233e+00 6.1613965666971950