<?xml version="1.0"?>
<VTKFile type="UnstructuredGrid"  version="0.1"  >
<UnstructuredGrid>
<Piece  NumberOfPoints="4269" NumberOfCells="8234">
<Points>
<DataArray  type="Float64"  NumberOfComponents="3"  format="ascii">0 1 0  0 0 0  7.5 0 0  7.5 1 0  1.197537668119028 0.5812868930080463 0  1.2 0.55 0  1.197537668119028 0.5187131069919538 0  1.190211303259031 0.4881966011250105 0  1.178201304837674 0.4592019000520907 0  1.161803398874989 0.4324429495415054 0  1.141421356237309 0.4085786437626905 0  1.117557050458495 0.3881966011250105 0  1.090798099947909 0.3717986951623264 0  1.06180339887499 0.3597886967409693 0  1.031286893008046 0.3524623318809725 0  1 0.35 0  0.9687131069919538 0.3524623318809725 0  0.9381966011250105 0.3597886967409694 0  0.9092019000520906 0.3717986951623264 0  0.8824429495415054 0.3881966011250105 0  0.8585786437626904 0.4085786437626905 0  0.8381966011250105 0.4324429495415054 0  0.8217986951623264 0.4592019000520907 0  0.8097886967409692 0.4881966011250107 0  0.8024623318809725 0.5187131069919539 0  0.8 0.55 0  0.8024623318809725 0.5812868930080463 0  0.8097886967409693 0.6118033988749896 0  0.8217986951623264 0.6407980999479095 0  0.8381966011250105 0.6675570504584947 0  0.8585786437626906 0.6914213562373096 0  0.8824429495415054 0.7118033988749896 0  0.9092019000520907 0.7282013048376736 0  0.9381966011250106 0.7402113032590307 0  0.9687131069919539 0.7475376681190276 0  1 0.75 0  1.031286893008046 0.7475376681190276 0  1.06180339887499 0.7402113032590307 0  1.090798099947909 0.7282013048376736 0  1.117557050458495 0.7118033988749896 0  1.141421356237309 0.6914213562373095 0  1.161803398874989 0.6675570504584947 0  1.178201304837674 0.6407980999479094 0  1.190211303259031 0.6118033988749896 0  3.75 0 0  3.75 1 0  1.875 0 0  1.875 1 0  0.9375 0 0  0.9375 1 0  1.40625 1 0  5.625 1 0  5.625 0 0  2.8125 1 0  2.8125 0 0  4.6875 0 0  4.6875 1 0  6.5625 0 0  6.5625 1 0  5.15625 0.5 0  4.21875 0.5 0  2.34375 0.5 0  3.28125 0.5 0  6.09375 0.5 0  7.5 0.5 0  6.897916666666666 0.5 0  1.842708333333333 0.5 0  0 0.5 0  0.46875 0 0  5.625 0.5302734375 0  7.03125 0 0  6.09375 1 0  2.8125 0.4697265625 0  3.28125 0 0  2.34375 1 0  2.34375 0 0  3.75 0.4697265625 0  4.21875 0 0  4.21875 1 0  4.6875 0.5302734375 0  3.28125 1 0  5.15625 0 0  6.09375 0 0  5.15625 1 0  0.46875 1 0  1.40625 0 0  7.03125 1 0  0.3954638734376499 0.5975780249976004 0  6.495833333333334 0.4072265624999998 0  5.859375 0.25 0  4.905729166666666 0.26513671875 0  4.453125 0.25 0  3.531770833333333 0.73486328125 0  3.968229166666667 0.73486328125 0  2.594270833333333 0.73486328125 0  3.030729166666667 0.73486328125 0  6.328125 0.75 0  7.198958333333334 0.3125000000000002 0  7.198958333333334 0.6874999999999998 0  5.390625 0.25 0  0 0.25 0  2.109375 0.75 0  2.109375 0.25 0  1.51921323205749 0.3418883887525936 0  1.522346610178253 0.6811769608297746 0  5.375456746419271 0.75 0  4.921875 0.76513671875 0  4.437956746419271 0.75 0  3.984375 0.23486328125 0  3.500456746419271 0.25 0  2.578125 0.23486328125 0  3.046875 0.23486328125 0  5.874543253580729 0.75 0  6.642123189445656 0.6909095493086836 0  6.746354166666666 0.2391688368055553 0  0.3197109619185111 0.2850049285972083 0  6.328125 0 0  0.6313375889370429 0.2351325552547357 0  0 0.75 0  6.252283381534729 0.2693808819694041 0  0.234375 1 0  6.948437500000001 0.7543055555555555 0  0.5934018769555939 0.7694151657947577 0  1.858854166666667 0.75 0  1.858854166666667 0.25 0  1.640625 0 0  2.093229166666667 0.5 0  7.5 0.25 0  3.282227579752604 0.75 0  7.5 0.75 0  1.171875 0 0  1.303539853147731 0.2235426933121065 0  5.148177083333333 0.2575683593749998 0  2.351822916666667 0.742431640625 0  1.640625 1 0  4.202380413457425 0.7645435094236485 0  3.047822985053062 0.4701848030090332 0  2.577177014946938 0.4701848030090332 0  4.672792740482199 0.76513671875 0  4.922822985053062 0.5298151969909668 0  5.390593497949761 0.5156244924311331 0  5.610292740482199 0.76513671875 0  3.516602579752604 0.5 0  4.45496853898097 0.4865915990446593 0  5.85753146101903 0.4865915990446593 0  3.749511210123698 0.23486328125 0  3.983397420247396 0.4999999999999999 0  2.343497975411212 0.2346270081980111 0  4.219002024588788 0.2346270081980111 0  0.703125 0 0  2.8125 0.2343755075688669 0  3.046875 0 0  2.578125 0 0  3.515625 0 0  3.984375 0 0  4.453125 1 0  5.390625 1 0  2.109375 0 0  2.109375 1 0  5.625 0.2921402030705575 0  5.390625 0 0  7.265625 0 0  6.796875 0 0  6.328125 1 0  3.046875 1 0  2.578125 1 0  3.984375 1 0  3.515625 1 0  4.453125 0 0  4.921875 0 0  5.859375 0 0  0.703125 1 0  1.171875 1 0  7.265625 1 0  4.921875 1 0  5.859375 1 0  0.234375 0 0  6.796875 1 0  6.980310975276531 0.2285890127127066 0  5.149170481934885 0.772689292163473 0  3.274170481934884 0.2273107078365268 0  6.101334126790364 0.7722468376159667 0  4.678005340872584 0.3000799877067239 0  2.8125 0.6921051326382495 0  3.75 0.6921051326382495 0  0.3515624999999999 0.8134571721668546 0  0.4990405774417521 0.4070099317153735 0  0.1789273931360182 0.625 0  6.31239060814315 0.5298877111157968 0  6.456979773992304 0.1917956348713352 0  6.699870808919271 0.4406293402777773 0  1.337539480965883 0.7944303676599538 0  6.058675797563041 0.2019812164653516 0  0.8203125 0.1643029084422534 0  0.1480856513011711 0.375 0  1.090769294689562 0.1719186776982972 0  7.291088163206459 0.5 0  7.094502414936563 0.5197902199074071 0  0.6046212059042245 0.5730066483871106 0  1.707231580809486 0.6342709161352207 0  1.685961352504593 0.8193269193390785 0  1.374721602852827 0.4600373025865813 0  6.486415510043844 0.5916440776477192 0  1.5234375 0.1508863828685116 0  1.707925830421689 0.3657739208189008 0  0.1674513225045584 0.8278776664019765 0  7.138268756771176 0.1438183366439137 0  7.1484375 0.8616388888888887 0  7.328562530764119 0.819498462930605 0  4.101073710123698 0.3678637200736647 0  1.693878467219965 0.1911955120941053 0  1.577566745468488 0.5110082404081502 0  6.6796875 0.8653871806883484 0  6.498039504430512 0.825568433346395 0  0.7562556668576472 0.8333197949571929 0  4.101045914668806 0.6255195807449272 0  5.030745188395182 0.382829047309028 0  2.476364945868651 0.6095868094762166 0  2.729359843907322 0.8460525663191247 0  2.9296875 0.8740763101564099 0  3.163518307559356 0.6254622797994247 0  3.666859843907322 0.8460525663191247 0  3.8671875 0.8740763101564099 0  4.8046875 0.12592368984359 0  3.14936031382311 0.8606990583876851 0  2.4609375 0.8747622921397776 0  5.023140791101972 0.1392266772452574 0  0 0.125 0  0.1759922923594607 0.1727589856739889 0  4.5703125 0.125 0  7.327755777818006 0.1766156770456191 0  5.5078125 0.125 0  5.719712725029036 0.1460701015352787 0  4.327848962028002 0.3674169956512513 0  5.982681121544351 0.3692637923021713 0  3.398926289876302 0.6245417594909667 0  5.281756792511996 0.3827993367299961 0  2.226822645963271 0.6252438868405666 0  2.234390064317166 0.8676616584526566 0  5.2734375 0.125 0  1.96796875 0.382568359375 0  2.234651037971999 0.3674169956512511 0  1.984114583333333 0.132568359375 0  1.9921875 0.875 0  1.984114583333333 0.632568359375 0  5.748733794462357 0.8678269127183313 0  3.3984375 0.875456329184688 0  1.512925924995415 0.8582958012121853 0  1.359299372802969 0.6275861864990343 0  4.810521420483513 0.4041767793635395 0  0.2996213306116602 0.455339710363317 0  5.999933717403708 0.6388425470751088 0  5.250033449003657 0.6388713364551682 0  3.631676045992918 0.3525406652400928 0  4.3359375 0.8816499670325881 0  4.343577437052484 0.6116511299909198 0  3.375033449003656 0.3611286635448316 0  5.763152151652243 0.6249404690537395 0  4.549347848347757 0.6249404690537396 0  5.5004588702411 0.6403667365776566 0  5.976118394847484 0.8816230218343086 0  5.054722486865804 0.6338007028640954 0  3.164542163493752 0.3520519332736524 0  2.445407482032355 0.3672168403687257 0  4.8046875 0.882568359375 0  4.1015625 0.117431640625 0  2.4609375 0.117431640625 0  2.695556894938151 0.3520510350344335 0  2.929443105061849 0.3520510350344335 0  3.881979231817319 0.3670559016511187 0  3.8671875 0.117431640625 0  4.805389247695744 0.6470047893641744 0  3.399370721942191 0.1184066543556767 0  5.274370721942192 0.881593345644323 0  3.618253274934649 0.1316869186284249 0  2.6953125 0.1171877537844335 0  2.9296875 0.1171877537844335 0  2.21873344389451 0.125 0  4.3359375 0.1171877625080073 0  0.6659898565672709 0.3986593551313873 0  7.363359022954956 0.3481046411219251 0  7.363359022954956 0.6518953588780749 0  5.487719392831826 0.3828237631077121 0  2.695054578344725 0.5809158475691247 0  2.944553877887707 0.5964065668438148 0  0.3515625 0.1201898858097106 0  5.5078125 1 0  4.5703125 1 0  5.031746201297604 0.882568359375 0  3.1640625 0 0  6.2109375 1 0  6.186845385763124 0.6336356480571081 0  4.1015625 1 0  6.810399074069772 0.6495574751396682 0  0.4740615253480797 0.2509287743856873 0  7.052064303830151 0.3684417917792242 0  6.195177069665382 0.1216488332168849 0  5.72300154718324 0.4112068202852788 0  3.879157465495092 0.6111892850691246 0  3.645760045247695 0.5809158475691247 0  6.868257400485771 0.3427840810237202 0  6.612030892260864 0.1521752713064389 0  6.615666885941117 0.3151079644097221 0  4.04296875 0.8633718902669071 0  1.183031453639096 0.8486801864185936 0  6.9140625 0 0  6.859079526500421 0.1398292786950638 0  6.808232443325651 0.7957411753922057 0  6.9140625 1 0  4.544955211100143 0.3675874343205077 0  1.0546875 1 0  6.122060236165557 0.3316791557072867 0  0.5859375 0 0  5.9765625 0 0  5.44921875 0.870984788733638 0  4.51171875 0.870984788733638 0  0.7608354256382215 0.2931261274224557 0  6.386875332239937 0.3156583003094978 0  6.985654756850997 0.6147408423643147 0  6.223797257919172 0.8535621912121121 0  5.936822413218736 0.1338376546337823 0  6.23933008800134 0.4095573603773768 0  0.5414022462152697 0.1305482677949959 0  6.331360438104348 0.1370086318183389 0  0.956404929269873 0.1374266563647954 0  1.2890625 1 0  0.691305981127761 0.6764829884281737 0  3.531251607241209 0.8678916320952239 0  2.59787442813022 
[...]
<PointData  Vectors="f_71627"> 
<DataArray  type="Float64"  Name="f_71627"  NumberOfComponents="3" format="ascii">0.0000000000000000e+00 0.0000000000000000e+00 0.0000000000000000e+00  0.0000000000000000e+00 0.0000000000000000e+00 0.0000000000000000e+00  0.0000000000000000e+00 0.0000000000000000e+00 0.0000000000000000e+00  0.0000000000000000e+00 0.0000000000000000e+00 0.0000000000000000e+00  0.0000000000000000e+00 0.0000000000000000e+00 0.0000000000000000e+00  0.0000000000000000e+00 0.0000000000000000e+00 0.0000000000000000e+00  0.0000000000000000e+00 0.0000000000000000e+00 0.0000000000000000e+00  0.0000000000000000e+00 0.0000000000000000e+00 0.0000000000000000e+00  0.0000000000000000e+00 0.0000000000000000e+00 0.0000000000000000e+00  0.0000000000000000e+00 0.0000000000000000e+00 0.0000000000000000e+00  0.0000000000000000e+00 0.0000000000000000e+00 0.0000000000000000e+00  0.0000000000000000e+00 0.0000000000000000e+00 0.0000000000000000e+00  0.0000000000000000e+00 0.0000000000000000e+00 0.0000000000000000e+00  0.0000000000000000e+00 0.0000000000000000e+00 0.0000000000000000e+00  0.0000000000000000e+00 0.0000000000000000e+00 0.0000000000000000e+00  0.0000000000000000e+00 0.0000000000000000e+00 0.0000000000000000e+00  0.0000000000000000e+00 0.0000000000000000e+00 0.0000000000000000e+00  0.0000000000000000e+00 0.0000000000000000e+00 0.0000000000000000e+00  0.0000000000000000e+00 0.0000000000000000e+00 0.0000000000000000e+00  0.0000000000000000e+00 0.0000000000000000e+00 0.0000000000000000e+00  0.0000000000000000e+00 0.0000000000000000e+00 0.0000000000000000e+00  0.0000000000000000e+00 0.0000000000000000e+00 0.0000000000000000e+00  0.0000000000000000e+00 0.0000000000000000e+00 0.0000000000000000e+00  0.0000000000000000e+00 0.0000000000000000e+00 0.0000000000000000e+00  0.0000000000000000e+00 0.0000000000000000e+00 0.0000000000000000e+00  0.0000000000000000e+00 0.0000000000000000e+00 0.0000000000000000e+00  0.0000000000000000e+00 0.0000000000000000e+00 0.0000000000000000e+00  0.0000000000000000e+00 0.0000000000000000e+00 0.0000000000000000e+00  0.0000000000000000e+00 0.0000000000000000e+00 0.0000000000000000e+00  0.0000000000000000e+00 0.0000000000000000e+00 0.0000000000000000e+00  0.0000000000000000e+00 0.0000000000000000e+00 0.0000000000000000e+00  0.0000000000000000e+00 0.0000000000000000e+00 0.0000000000000000e+00  0.0000000000000000e+00 0.0000000000000000e+00 0.0000000000000000e+00  0.0000000000000000e+00 0.0000000000000000e+00 0.0000000000000000e+00  0.0000000000000000e+00 0.0000000000000000e+00 0.0000000000000000e+00  0.0000000000000000e+00 0.0000000000000000e+00 0.0000000000000000e+00  0.0000000000000000e+00 0.0000000000000000e+00 0.0000000000000000e+00  0.0000000000000000e+00 0.0000000000000000e+00 0.0000000000000000e+00  0.0000000000000000e+00 0.0000000000000000e+00 0.0000000000000000e+00  0.0000000000000000e+00 0.0000000000000000e+00 0.0000000000000000e+00  0.0000000000000000e+00 0.0000000000000000e+00 0.0000000000000000e+00  0.0000000000000000e+00 0.0000000000000000e+00 0.0000000000000000e+00  0.0000000000000000e+00 0.0000000000000000e+00 0.0000000000000000e+00  0.0000000000000000e+00 0.0000000000000000e+00 0.0000000000000000e+00  0.0000000000000000e+00 0.0000000000000000e+00 0.0000000000000000e+00  0.0000000000000000e+00 0.0000000000000000e+00 0.0000000000000000e+00  0.0000000000000000e+00 0.0000000000000000e+00 0.0000000000000000e+00  0.0000000000000000e+00 0.0000000000000000e+00 0.0000000000000000e+00  0.0000000000000000e+00 0.0000000000000000e+00 0.0000000000000000e+00  0.0000000000000000e+00 0.0000000000000000e+00 0.0000000000000000e+00  0.0000000000000000e+00 0.0000000000000000e+00 0.0000000000000000e+00  0.0000000000000000e+00 0.0000000000000000e+00 0.0000000000000000e+00  0.0000000000000000e+00 0.0000000000000000e+00 0.0000000000000000e+00  0.0000000000000000e+00 0.0000000000000000e+00 0.0000000000000000e+00  0.0000000000000000e+00 0.0000000000000000e+00 0.0000000000000000e+00  0.0000000000000000e+00 0.0000000000000000e+00 0.0000000000000000e+00  0.0000000000000000e+00 0.0000000000000000e+00 0.0000000000000000e+00  0.0000000000000000e+00 0.0000000000000000e+00 0.0000000000000000e+00  0.0000000000000000e+00 0.0000000000000000e+00 0.0000000000000000e+00  1.5722445234929376e+00 -1.6645151717025783e-01 0.0000000000000000e+00  1.3687220433554057e+00 -1.3884221679226900e+00 0.0000000000000000e+00  2.1980731245046998e+00 3.3364534383494632e-01 0.0000000000000000e+00  2.0726943914823073e+00 -6.3165396385736094e-01 0.0000000000000000e+00  1.4240567576398901e+00 1.0569798561663866e+00 0.0000000000000000e+00  1.5000002235876353e+00 0.0000000000000000e+00 0.0000000000000000e+00  1.4430339930309002e+00 -4.8526769071652526e-01 0.0000000000000000e+00  1.6463680409512309e+00 -7.2773996761800297e-01 0.0000000000000000e+00  1.5000002235876353e+00 0.0000000000000000e+00 0.0000000000000000e+00  0.0000000000000000e+00 0.0000000000000000e+00 0.0000000000000000e+00  1.3768173639369372e+00 -6.4769070412928997e-01 0.0000000000000000e+00  0.0000000000000000e+00 0.0000000000000000e+00 0.0000000000000000e+00  0.0000000000000000e+00 0.0000000000000000e+00 0.0000000000000000e+00  1.4919951869127388e+00 -2.5883687258601429e-01 0.0000000000000000e+00  0.0000000000000000e+00 0.0000000000000000e+00 0.0000000000000000e+00  0.0000000000000000e+00 0.0000000000000000e+00 0.0000000000000000e+00  0.0000000000000000e+00 0.0000000000000000e+00 0.0000000000000000e+00  1.6449065193935357e+00 1.3584977917124468e+00 0.0000000000000000e+00  0.0000000000000000e+00 0.0000000000000000e+00 0.0000000000000000e+00  0.0000000000000000e+00 0.0000000000000000e+00 0.0000000000000000e+00  1.6292851086108713e+00 9.1975598059098851e-01 0.0000000000000000e+00  0.0000000000000000e+00 0.0000000000000000e+00 0.0000000000000000e+00  0.0000000000000000e+00 0.0000000000000000e+00 0.0000000000000000e+00  0.0000000000000000e+00 0.0000000000000000e+00 0.0000000000000000e+00  0.0000000000000000e+00 0.0000000000000000e+00 0.0000000000000000e+00  0.0000000000000000e+00 0.0000000000000000e+00 0.0000000000000000e+00  0.0000000000000000e+00 0.0000000000000000e+00 0.0000000000000000e+00  0.0000000000000000e+00 0.0000000000000000e+00 0.0000000000000000e+00  1.3593443538861478e+00 -6.1879063141499512e-02 0.0000000000000000e+00  1.2599852812233894e+00 2.3295174876938751e-01 0.0000000000000000e+00  1.7542880377482175e+00 3.4783091593466536e-01 0.0000000000000000e+00  1.2541753221282523e+00 3.1444048496847399e-01 0.0000000000000000e+00  1.8636971027070182e+00 2.6187930255562087e-02 0.0000000000000000e+00  3.6436394601811067e-01 9.0902120935495467e-01 0.0000000000000000e+00  1.1199023079713490e+00 4.3891836448433655e-02 0.0000000000000000e+00  8.3361808058115239e-01 7.9763401608761131e-01 0.0000000000000000e+00  7.9411153644007715e-01 -6.9895228840548429e-01 0.0000000000000000e+00  1.3502133895468380e+00 -7.2301961964809577e-02 0.0000000000000000e+00  1.1758770861757410e+00 2.3431869562771140e-01 0.0000000000000000e+00  9.7567366389354149e-01 1.1141914639075122e-01 0.0000000000000000e+00  1.1455989607959138e+00 -6.3471766183713751e-01 0.0000000000000000e+00  1.1250001676907264e+00 0.0000000000000000e+00 0.0000000000000000e+00  1.2441706331005581e-01 -6.1394418003261031e-01 0.0000000000000000e+00  1.4343732650323708e+00 -4.8744709314948598e-01 0.0000000000000000e+00  1.6199349161532079e+00 1.0104860018518464e+00 0.0000000000000000e+00  2.5765514547853130e-01 3.4093222849288757e-01 0.0000000000000000e+00  8.5699563107769339e-01 -4.7625031925154704e-01 0.0000000000000000e+00  1.0872262537087842e+00 3.3023647987334981e-01 0.0000000000000000e+00  1.4388316231799284e-01 -1.9383022154756285e-01 0.0000000000000000e+00  5.6385582536702950e-01 -2.5593348060123994e-01 0.0000000000000000e+00  1.5411134705326084e+00 4.5511108098451308e-01 0.0000000000000000e+00  9.8719884014435333e-01 4.5044068878249494e-01 0.0000000000000000e+00  1.5433303986706970e+00 -6.4714152965746674e-01 0.0000000000000000e+00  3.5088048787438553e-01 5.4091975293961780e-01 0.0000000000000000e+00  1.4703485118667285e+00 -2.2750035215969730e-01 0.0000000000000000e+00  7.3651882021096804e-01 -2.9503147548610681e-01 0.0000000000000000e+00  1.2414592393304396e+00 -1.1048069764291853e-01 0.0000000000000000e+00  0.0000000000000000e+00 0.0000000000000000e+00 0.0000000000000000e+00  1.2943893341858468e+00 -3.2627532159994077e-01 0.0000000000000000e+00  1.1250001676907264e+00 0.0000000000000000e+00 0.0000000000000000e+00  1.0442868419843594e+00 1.4088263036817883e-01 0.0000000000000000e+00  0.0000000000000000e+00 0.0000000000000000e+00 0.0000000000000000e+00  1.1398976829075183e+00 -2.3506392924647259e-02 0.0000000000000000e+00  9.9973509827423224e-01 1.7763644796214423e-01 0.0000000000000000e+00  1.3272314543321886e+00 -7.0703218055091710e-01 0.0000000000000000e+00  3.0582122184826638e-01 -1.3307442618669132e-01 0.0000000000000000e+00  0.0000000000000000e+00 0.0000000000000000e+00 0.0000000000000000e+00  1.8347644917677128e+00 -9.9768653221817183e-01 0.0000000000000000e+00  1.1250001676907264e+00 0.0000000000000000e+00 0.0000000000000000e+00  1.0954320222404151e-01 -5.1785740031017857e-01 0.0000000000000000e+00  1.1250001676907264e+00 0.0000000000000000e+00 0.0000000000000000e+00  0.0000000000000000e+00 0.0000000000000000e+00 0.0000000000000000e+00  2.0732283642304243e+00 3.9351729538059732e-01 0.0000000000000000e+00  9.8054835847709088e-01 -3.5214692289179861e-01 0.0000000000000000e+00  -4.4325929396105090e-01 4.2137359791558054e-01 0.0000000000000000e+00  0.0000000000000000e+00 0.0000000000000000e+00 0.0000000000000000e+00  7.1275142642249112e-01 -7.5724248868864152e-01 0.0000000000000000e+00  1.8427233415698556e+00 -8.8726608909735893e-01 0.0000000000000000e+00  1.8660692229382743e+00 1.5142397253326378e+00 0.0000000000000000e+00  4.7523653185871717e-01 6.3952203194380308e-01 0.0000000000000000e+00  1.5545605328976004e+00 6.5566597773367052e-01 0.0000000000000000e+00  1.5363010482902928e+00 -9.2123119334716941e-01 0.0000000000000000e+00  3.3598624051898884e-01 -3.4298532686795413e-01 0.0000000000000000e+00  2.0964586499867122e+00 8.4859109050525350e-01 0.0000000000000000e+00  1.5797647404780630e+00 -3.4211873940287102e-01 0.0000000000000000e+00  1.6574149958777336e+00 4.8960058347723900e-01 0.0000000000000000e+00  8.2261235098692587e-01 5.2056485722908896e-01 0.0000000000000000e+00  1.5459746721336305e+00 -4.2220303777585744e-01 0.0000000000000000e+00  1.9634748769725860e+00 5.5949624719413171e-01 0.0000000000000000e+00  1.0505607007615632e+00 -6.7571135459812970e-01 0.0000000000000000e+00  0.0000000000000000e+00 0.0000000000000000e+00 0.0000000000000000e+00  1.3441189113139040e+00 9.4720006423468478e-02 0.0000000000000000e+00  0.0000000000000000e+00 0.0000000000000000e+00 0.0000000000000000e+00  0.0000000000000000e+00 0.0000000000000000e+00 0.0000000000000000e+00  0.0000000000000000e+00 0.0000000000000000e+00 0.0000000000000000e+00  0.0000000000000000e+00 0.0000000000000000e+00 0.0000000000000000e+00  0.0000000000000000e+00 0.0000000000000000e+00 0.0000000000000000e+00  0.0000000000000000e+00 0.0000000000000000e+00 0.0000000000000000e+00  0.0000000000000000e+00 0.0000000000000000e+00 0.0000000000000000e+00  0.0000000000000000e+00 0.0000000000000000e+00 0.0000000000000000e+00  1.7363537661155306e+00 -4.2409731674178675e-01 0.0000000000000000e+00  0.0000000000000000e+00 0.0000000000000000e+00 0.0000000000000000e+00  0.0000000000000000e+00 0.0000000000000000e+00 0.0000000000000000e+00  0.0000000000000000e+00 0.0000000000000000e+00 0.0000000000000000e+00  0.0000000000000000e+00 0.0000000000000000e+00 0.0000000000000000e+00  0.0000000000000000e+00 0.0000000000000000e+00 0.0000000000000000e+00  0.0000000000000000e+00 0.0000000000000000e+00 0.0000000000000000e+00  0.0000000000000000e+00 0.0000000000000000e+00 0.0000000000000000e+00  0.0000000000000000e+00 0.0000000000000000e+00 0.0000000000000000e+00  0.0000000000000000e+00 0.0000000000000000e+00 0.0000000000000000e+00  0.0000000000000000e+00 0.0000000000000000e+00 0.0000000000000000e+00  0.0000000000000000e+00 0.0000000000000000e+00 0.0000000000000000e+00  0.0000000000000000e+00 0.0000000000000000e+00 0.0000000000000000e+00  0.0000000000000000e+00 0.0000000000000000e+00 0.0000000000000000e+00  0.0000000000000000e+00 0.0000000000000000e+00 0.0000000000000000e+00  0.0000000000000000e+00 0.0000000000000000e+00 0.0000000000000000e+00  0.0000000000000000e+00 0.0000000000000000e+00 0.0000000000000000e+00  0.0000000000000000e+00 0.0000000000000000e+00 0.0000000000000000e+00  0.0000000000000000e+00 0.0000000000000000e+00 0.0000000000000000e+00  1.0279140318512991e+00 -4.3915902675859519e-01 0.0000000000000000e+00  1.2234725221951062e+00 -1.0699408832947481e-01 0.0000000000000000e+00  1.5041757348963767e+00 -2.5783304933240658e-01 0.0000000000000000e+00  8.1781021511166807e-01 6.9267026154476341e-01 0.0000000000000000e+00  1.7999017269374127e+00 7.2877334079348188e-01 0.0000000000000000e+00  1.3223477419515528e+00 -2.0483809277307641e-01 0.0000000000000000e+00  1.1758228957973207e+00 1.0013919842358912e+00 0.0000000000000000e+00  8.8691241476281379e-01 2.6953308607970141e-03 0.0000000000000000e+00  1.3703690158920681e+00 -2.1101031147639240e-01 0.0000000000000000e+00  1.3932162741995782e+00 -3.2479461133566624e-02 0.0000000000000000e+00  1.1747520266387281e+00 1.2537861591868821e-01 0.0000000000000000e+00  6.3957316689176558e-01 1.6320843195251974e-01 0.0000000000000000e+00  1.5994149973493150e+00 -2.2764342157908193e-01 0.0000000000000000e+00  1.8402777039619185e+00 -2.1757112122841946e-01 0.0000000000000000e+00  1.1721090566579797e+00 3.0234381921340941e-01 0.0000000000000000e+00  1.5192495675333511e+00 -3.3404624197809801e-01 0.0000000000000000e+00  1.4053314483687005e+00 -4.1991158321146596e-02 0.0000000000000000e+00  2.0141218344237375e+00 -6.2683935888311225e-03 0.0000000000000000e+00  1.3421765757147737e+00 8.6218427775138162e-02 0.0000000000000000e+00  1.2879896258557046e+00 -3.8968167921670023e-02 0.0000000000000000e+00  1.1367764579949897e+00 -3.6179018754731049e-02 0.0000000000000000e+00  1.5037314338169825e+00 -2.5671980680086592e-01 0.0000000000000000e+00  1.7435728742657575e+00 -5.6258826227009273e-01 0.0000000000000000e+00  9.3168792801315048e-01 3.5419058650719409e-01 0.0000000000000000e+00  1.3897237883807281e+00 -7.3645232690373180e-02 0.0000000000000000e+00  1.3188774967897905e+00 3.0399220252557907e-01 0.0000000000000000e+00  9.0948226824688738e-01 6.7174620495372506e-01 0.0000000000000000e+00  8.4724857820883848e-01 -1.3146793004100203e-02 0.0000000000000000e+00  1.0201612982361599e+00 8.6237405171757417e-02 0.0000000000000000e+00  8.7277619496194425e-01 4.4636695215644227e-03 0.0000000000000000e+00  8.1587714176326587e-01 -1.1551318577924793e-02 0.0000000000000000e+00  1.2608505739682814e+00 -8.3269757807251898e-01 0.0000000000000000e+00  9.3692456402436719e-01 1.5032174251939256e-01 0.0000000000000000e+00  6.5859434352681423e-01 1.3526764810558551e+00 0.0000000000000000e+00  9.4913947321425407e-01 -4.6672531963940826e-02 0.0000000000000000e+00  1.2401211937408909e+00 -1.4495734608947253e-01 0.0000000000000000e+00  1.0738381198858402e+00 3.8731513489953107e-01 0.0000000000000000e+00  1.3790053624654974e+00 -9.1583016912328041e-01 0.0000000000000000e+00  1.4747771306894766e+00 2.4249590439663796e-01 0.0000000000000000e+00  1.1644915573482351e+00 1.3767844146379788e+00 0.0000000000000000e+00  1.0493046348421948e+00 1.7090327752248807e-02 0.0000000000000000e+00  7.4418149566726466e-01 -1.9033061066972889e-01 0.0000000000000000e+00  1.1743045574749218e+00 -9.2723454158837038e-01 0.0000000000000000e+00  2.7795884531496939e-01 6.6649358711179219e-01 0.0000000000000000e+00  1.1092885528865128e+00 7.7371032784882929e-02 0.0000000000000000e+00  6.3317692764805589e-01 2.3123658552601464e-01 0.0000000000000000e+00  9.0339781491948698e-02 -4.1436248421565725e-01 0.0000000000000000e+00  2.4742068966746664e-01 3.1296364987032294e-01 0.0000000000000000e+00  4.1097162493414630e-01 3.8425094005282443e-03 0.0000000000000000e+00  6.5625009781959032e-01 0.0000000000000000e+00 0.0000000000000000e+00  8.6869376171169210e-01 -4.1157974004594693e-02 0.0000000000000000e+00  1.2399672298108744e+00 1.8430939877771360e-01 0.0000000000000000e+00  8.0174680652948926e-01 8.6212868620099345e-02 0.0000000000000000e+00  1.0638598102537538e+00 -3.1418971064965556e-01 0.0000000000000000e+00  1.5488433254656944e+00 6.9553174073988061e-02 0.0000000000000000e+00  1.7484797778055881e+00 -9.2706000783126863e-01 0.0000000000000000e+00  1.7622198998243364e+00 8.2240266291183128e-01 0.0000000000000000e+00  1.3275314133565050e+00 1.2200363091784164e-01 0.0000000000000000e+00  1.3542223954587711e+00 -6.1221443135071374e-01 0.0000000000000000e+00  1.0119715326781180e+00 -5.2791449295588866e-01 0.0000000000000000e+00  -1.7249373452837910e-01 -3.9883564488634858e-02 0.0000000000000000e+00  4.7743375370115104e-01 -2.2121989715169130e-01 0.0000000000000000e+00  1.4153872767242124e+00 -1.5753976350475629e+00 0.0000000000000000e+00  1.8944938041057118e+00 -1.3978191103343041e-01 0.0000000000000000e+00  1.1296824698414543e+00 -2.8507378492916274e-01 0.0000000000000000e+00  3.3680566945682144e-01 -6.6679153192186785e-02 0.0000000000000000e+00  1.4727035426024422e+00 -9.8475539966872139e-01 0.0000000000000000e+00  -1.3378763030547675e-01 -4.8178896638059326e-03 0.0000000000000000e+00  -4.7028053753722165e-01 8.9494672175584461e-02 0.0000000000000000e+00  1.7796431855760091e+00 -3.0203506438504751e-01 0.0000000000000000e+00  -1.1824744143192338e+00 -1.5528354545899795e-01 0.0000000000000000e+00  1.7015572119684685e+00 7.8364386655012042e-01 0.0000000000000000e+00  1.4607967846330487e+00 -9.4689151875996427e-02 0.0000000000000000e+00  8.9911701135730693e-01 1.0695123509213182e+00 0.0000000000000000e+00  1.4287428991599280e+00 -3.4566856325945478e-01 0.0000000000000000e+00  1.7278148453547166e+00 1.0172690316940796e+00 0.0000000000000000e+00  8.9182167801537773e-02 -1.6877048075911702e-01 0.0000000000000000e+00  1.0620334426319764e+00 -9.2030506844122417e-01 0.0000000000000000e+00  1.8946841429119359e+00 7.9631753255206220e-03 0.0000000000000000e+00  8.8083541806764798e-01 7.2888866444799028e-02 0.0000000000000000e+00  1.0749773858322789e+00 4.1023521298742371e-01 0.0000000000000000e+00  1.0689700602038266e+00 -8.4148888015378409e-01 0.0000000000000000e+00  3.7585245298453301e-01 3.8721368980806942e-01 0.0000000000000000e+00  1.5171899837225744e+00 1.3297048521316118e-01 0.0000000000000000e+00  1.8871478006816758e+00 -6.3594257843844393e-01 0.0000000000000000e+00  2.0117328367467806e+00 9.4775398011109668e-01 0.0000000000000000e+00  4.2385341882826422e-01 2.8874778281963392e-01 0.0000000000000000e+00  4.8871077443433714e-01 -1.6927242998630140e-01 0.0000000000000000e+00  8.0477655608338727e-01 9.4120129300238928e-02 0.0000000000000000e+00  1.1530541438559279e+00 2.9537828424374474e-01 0.0000000000000000e+00  1.5292417616455498e+00 -4.0089341748139168e-01 0.0000000000000000e+00  1.0938162528448327e+00 2.9802077194394971e-01 0.0000000000000000e+00  3.0225770817038156e-01 1.4171375755030666e-01 0.0000000000000000e+00  1.2698618604153844e+00 9.0612397390651755e-01 0.0000000000000000e+00  1.3581183512360497e+00 8.5682453838836336e-03 0.0000000000000000e+00  7.6944372414985807e-01 -6.5822687902544086e-02 0.0000000000000000e+00  9.0316397575779483e-01 2.6548443219543910e-01 0.0000000000000000e+00  -1.5996879575078091e-01 4.2375511389891879e-01 0.0000000000000000e+00  3.1597610162135542e-01 -1.5831938050253505e-01 0.0000000000000000e+00  1.6263092027096826e+00 1.5855704643453697e-01 0.0000000000000000e+00  1.1457311337151586e+00 5.5602388587299073e-02 0.0000000000000000e+00  1.2628070070248598e+00 -4.6617676811045666e-01 0.0000000000000000e+00  1.0840724648456201e+00 1.1725466276560464e-01 0.0000000000000000e+00  1.0602256695791370e+00 7.7332947935010707e-02 0.0000000000000000e+00  1.6376708111876690e+00 -9.5180125065320831e-01 0.00000