<?xml version="1.0"?>
<VTKFile type="UnstructuredGrid"  version="0.1"  >
<UnstructuredGrid>
<Piece  NumberOfPoints="4269" NumberOfCells="8234">
<Points>
<DataArray  type="Float64"  NumberOfComponents="3"  format="ascii">0 1 0  0 0 0  7.5 0 0  7.5 1 0  1.197537668119028 0.5812868930080463 0  1.2 0.55 0  1.197537668119028 0.5187131069919538 0  1.190211303259031 0.4881966011250105 0  1.178201304837674 0.4592019000520907 0  1.161803398874989 0.4324429495415054 0  1.141421356237309 0.4085786437626905 0  1.117557050458495 0.3881966011250105 0  1.090798099947909 0.3717986951623264 0  1.06180339887499 0.3597886967409693 0  1.031286893008046 0.3524623318809725 0  1 0.35 0  0.9687131069919538 0.3524623318809725 0  0.9381966011250105 0.3597886967409694 0  0.9092019000520906 0.3717986951623264 0  0.8824429495415054 0.3881966011250105 0  0.8585786437626904 0.4085786437626905 0  0.8381966011250105 0.4324429495415054 0  0.8217986951623264 0.4592019000520907 0  0.8097886967409692 0.4881966011250107 0  0.8024623318809725 0.5187131069919539 0  0.8 0.55 0  0.8024623318809725 0.5812868930080463 0  0.8097886967409693 0.6118033988749896 0  0.8217986951623264 0.6407980999479095 0  0.8381966011250105 0.6675570504584947 0  0.8585786437626906 0.6914213562373096 0  0.8824429495415054 0.7118033988749896 0  0.9092019000520907 0.7282013048376736 0  0.9381966011250106 0.7402113032590307 0  0.9687131069919539 0.7475376681190276 0  1 0.75 0  1.031286893008046 0.7475376681190276 0  1.06180339887499 0.7402113032590307 0  1.090798099947909 0.7282013048376736 0  1.117557050458495 0.7118033988749896 0  1.141421356237309 0.6914213562373095 0  1.161803398874989 0.6675570504584947 0  1.178201304837674 0.6407980999479094 0  1.190211303259031 0.6118033988749896 0  3.75 0 0  3.75 1 0  1.875 0 0  1.875 1 0  0.9375 0 0  0.9375 1 0  1.40625 1 0  5.625 1 0  5.625 0 0  2.8125 1 0  2.8125 0 0  4.6875 0 0  4.6875 1 0  6.5625 0 0  6.5625 1 0  5.15625 0.5 0  4.21875 0.5 0  2.34375 0.5 0  3.28125 0.5 0  6.09375 0.5 0  7.5 0.5 0  6.897916666666666 0.5 0  1.842708333333333 0.5 0  0 0.5 0  0.46875 0 0  5.625 0.5302734375 0  7.03125 0 0  6.09375 1 0  2.8125 0.4697265625 0  3.28125 0 0  2.34375 1 0  2.34375 0 0  3.75 0.4697265625 0  4.21875 0 0  4.21875 1 0  4.6875 0.5302734375 0  3.28125 1 0  5.15625 0 0  6.09375 0 0  5.15625 1 0  0.46875 1 0  1.40625 0 0  7.03125 1 0  0.3954638734376499 0.5975780249976004 0  6.495833333333334 0.4072265624999998 0  5.859375 0.25 0  4.905729166666666 0.26513671875 0  4.453125 0.25 0  3.531770833333333 0.73486328125 0  3.968229166666667 0.73486328125 0  2.594270833333333 0.73486328125 0  3.030729166666667 0.73486328125 0  6.328125 0.75 0  7.198958333333334 0.3125000000000002 0  7.198958333333334 0.6874999999999998 0  5.390625 0.25 0  0 0.25 0  2.109375 0.75 0  2.109375 0.25 0  1.51921323205749 0.3418883887525936 0  1.522346610178253 0.6811769608297746 0  5.375456746419271 0.75 0  4.921875 0.76513671875 0  4.437956746419271 0.75 0  3.984375 0.23486328125 0  3.500456746419271 0.25 0  2.578125 0.23486328125 0  3.046875 0.23486328125 0  5.874543253580729 0.75 0  6.642123189445656 0.6909095493086836 0  6.746354166666666 0.2391688368055553 0  0.3197109619185111 0.2850049285972083 0  6.328125 0 0  0.6313375889370429 0.2351325552547357 0  0 0.75 0  6.252283381534729 0.2693808819694041 0  0.234375 1 0  6.948437500000001 0.7543055555555555 0  0.5934018769555939 0.7694151657947577 0  1.858854166666667 0.75 0  1.858854166666667 0.25 0  1.640625 0 0  2.093229166666667 0.5 0  7.5 0.25 0  3.282227579752604 0.75 0  7.5 0.75 0  1.171875 0 0  1.303539853147731 0.2235426933121065 0  5.148177083333333 0.2575683593749998 0  2.351822916666667 0.742431640625 0  1.640625 1 0  4.202380413457425 0.7645435094236485 0  3.047822985053062 0.4701848030090332 0  2.577177014946938 0.4701848030090332 0  4.672792740482199 0.76513671875 0  4.922822985053062 0.5298151969909668 0  5.390593497949761 0.5156244924311331 0  5.610292740482199 0.76513671875 0  3.516602579752604 0.5 0  4.45496853898097 0.4865915990446593 0  5.85753146101903 0.4865915990446593 0  3.749511210123698 0.23486328125 0  3.983397420247396 0.4999999999999999 0  2.343497975411212 0.2346270081980111 0  4.219002024588788 0.2346270081980111 0  0.703125 0 0  2.8125 0.2343755075688669 0  3.046875 0 0  2.578125 0 0  3.515625 0 0  3.984375 0 0  4.453125 1 0  5.390625 1 0  2.109375 0 0  2.109375 1 0  5.625 0.2921402030705575 0  5.390625 0 0  7.265625 0 0  6.796875 0 0  6.328125 1 0  3.046875 1 0  2.578125 1 0  3.984375 1 0  3.515625 1 0  4.453125 0 0  4.921875 0 0  5.859375 0 0  0.703125 1 0  1.171875 1 0  7.265625 1 0  4.921875 1 0  5.859375 1 0  0.234375 0 0  6.796875 1 0  6.980310975276531 0.2285890127127066 0  5.149170481934885 0.772689292163473 0  3.274170481934884 0.2273107078365268 0  6.101334126790364 0.7722468376159667 0  4.678005340872584 0.3000799877067239 0  2.8125 0.6921051326382495 0  3.75 0.6921051326382495 0  0.3515624999999999 0.8134571721668546 0  0.4990405774417521 0.4070099317153735 0  0.1789273931360182 0.625 0  6.31239060814315 0.5298877111157968 0  6.456979773992304 0.1917956348713352 0  6.699870808919271 0.4406293402777773 0  1.337539480965883 0.7944303676599538 0  6.058675797563041 0.2019812164653516 0  0.8203125 0.1643029084422534 0  0.1480856513011711 0.375 0  1.090769294689562 0.1719186776982972 0  7.291088163206459 0.5 0  7.094502414936563 0.5197902199074071 0  0.6046212059042245 0.5730066483871106 0  1.707231580809486 0.6342709161352207 0  1.685961352504593 0.8193269193390785 0  1.374721602852827 0.4600373025865813 0  6.486415510043844 0.5916440776477192 0  1.5234375 0.1508863828685116 0  1.707925830421689 0.3657739208189008 0  0.1674513225045584 0.8278776664019765 0  7.138268756771176 0.1438183366439137 0  7.1484375 0.8616388888888887 0  7.328562530764119 0.819498462930605 0  4.101073710123698 0.3678637200736647 0  1.693878467219965 0.1911955120941053 0  1.577566745468488 0.5110082404081502 0  6.6796875 0.8653871806883484 0  6.498039504430512 0.825568433346395 0  0.7562556668576472 0.8333197949571929 0  4.101045914668806 0.6255195807449272 0  5.030745188395182 0.382829047309028 0  2.476364945868651 0.6095868094762166 0  2.729359843907322 0.8460525663191247 0  2.9296875 0.8740763101564099 0  3.163518307559356 0.6254622797994247 0  3.666859843907322 0.8460525663191247 0  3.8671875 0.8740763101564099 0  4.8046875 0.12592368984359 0  3.14936031382311 0.8606990583876851 0  2.4609375 0.8747622921397776 0  5.023140791101972 0.1392266772452574 0  0 0.125 0  0.1759922923594607 0.1727589856739889 0  4.5703125 0.125 0  7.327755777818006 0.1766156770456191 0  5.5078125 0.125 0  5.719712725029036 0.1460701015352787 0  4.327848962028002 0.3674169956512513 0  5.982681121544351 0.3692637923021713 0  3.398926289876302 0.6245417594909667 0  5.281756792511996 0.3827993367299961 0  2.226822645963271 0.6252438868405666 0  2.234390064317166 0.8676616584526566 0  5.2734375 0.125 0  1.96796875 0.382568359375 0  2.234651037971999 0.3674169956512511 0  1.984114583333333 0.132568359375 0  1.9921875 0.875 0  1.984114583333333 0.632568359375 0  5.748733794462357 0.8678269127183313 0  3.3984375 0.875456329184688 0  1.512925924995415 0.8582958012121853 0  1.359299372802969 0.6275861864990343 0  4.810521420483513 0.4041767793635395 0  0.2996213306116602 0.455339710363317 0  5.999933717403708 0.6388425470751088 0  5.250033449003657 0.6388713364551682 0  3.631676045992918 0.3525406652400928 0  4.3359375 0.8816499670325881 0  4.343577437052484 0.6116511299909198 0  3.375033449003656 0.3611286635448316 0  5.763152151652243 0.6249404690537395 0  4.549347848347757 0.6249404690537396 0  5.5004588702411 0.6403667365776566 0  5.976118394847484 0.8816230218343086 0  5.054722486865804 0.6338007028640954 0  3.164542163493752 0.3520519332736524 0  2.445407482032355 0.3672168403687257 0  4.8046875 0.882568359375 0  4.1015625 0.117431640625 0  2.4609375 0.117431640625 0  2.695556894938151 0.3520510350344335 0  2.929443105061849 0.3520510350344335 0  3.881979231817319 0.3670559016511187 0  3.8671875 0.117431640625 0  4.805389247695744 0.6470047893641744 0  3.399370721942191 0.1184066543556767 0  5.274370721942192 0.881593345644323 0  3.618253274934649 0.1316869186284249 0  2.6953125 0.1171877537844335 0  2.9296875 0.1171877537844335 0  2.21873344389451 0.125 0  4.3359375 0.1171877625080073 0  0.6659898565672709 0.3986593551313873 0  7.363359022954956 0.3481046411219251 0  7.363359022954956 0.6518953588780749 0  5.487719392831826 0.3828237631077121 0  2.695054578344725 0.5809158475691247 0  2.944553877887707 0.5964065668438148 0  0.3515625 0.1201898858097106 0  5.5078125 1 0  4.5703125 1 0  5.031746201297604 0.882568359375 0  3.1640625 0 0  6.2109375 1 0  6.186845385763124 0.6336356480571081 0  4.1015625 1 0  6.810399074069772 0.6495574751396682 0  0.4740615253480797 0.2509287743856873 0  7.052064303830151 0.3684417917792242 0  6.195177069665382 0.1216488332168849 0  5.72300154718324 0.4112068202852788 0  3.879157465495092 0.6111892850691246 0  3.645760045247695 0.5809158475691247 0  6.868257400485771 0.3427840810237202 0  6.612030892260864 0.1521752713064389 0  6.615666885941117 0.3151079644097221 0  4.04296875 0.8633718902669071 0  1.183031453639096 0.8486801864185936 0  6.9140625 0 0  6.859079526500421 0.1398292786950638 0  6.808232443325651 0.7957411753922057 0  6.9140625 1 0  4.544955211100143 0.3675874343205077 0  1.0546875 1 0  6.122060236165557 0.3316791557072867 0  0.5859375 0 0  5.9765625 0 0  5.44921875 0.870984788733638 0  4.51171875 0.870984788733638 0  0.7608354256382215 0.2931261274224557 0  6.386875332239937 0.3156583003094978 0  6.985654756850997 0.6147408423643147 0  6.223797257919172 0.8535621912121121 0  5.936822413218736 0.1338376546337823 0  6.23933008800134 0.4095573603773768 0  0.5414022462152697 0.1305482677949959 0  6.331360438104348 0.1370086318183389 0  0.956404929269873 0.1374266563647954 0  1.2890625 1 0  0.691305981127761 0.6764829884281737 0  3.531251607241209 0.8678916320952239 0  2.59787442813022 
[...]
<PointData  Vectors="f_71627"> 
<DataArray  type="Float64"  Name="f_71627"  NumberOfComponents="3" format="ascii">0.0000000000000000e+00 0.0000000000000000e+00 0.0000000000000000e+00  0.0000000000000000e+00 0.0000000000000000e+00 0.0000000000000000e+00  0.0000000000000000e+00 0.0000000000000000e+00 0.0000000000000000e+00  0.0000000000000000e+00 0.0000000000000000e+00 0.0000000000000000e+00  0.0000000000000000e+00 0.0000000000000000e+00 0.0000000000000000e+00  0.0000000000000000e+00 0.0000000000000000e+00 0.0000000000000000e+00  0.0000000000000000e+00 0.0000000000000000e+00 0.0000000000000000e+00  0.0000000000000000e+00 0.0000000000000000e+00 0.0000000000000000e+00  0.0000000000000000e+00 0.0000000000000000e+00 0.0000000000000000e+00  0.0000000000000000e+00 0.0000000000000000e+00 0.0000000000000000e+00  0.0000000000000000e+00 0.0000000000000000e+00 0.0000000000000000e+00  0.0000000000000000e+00 0.0000000000000000e+00 0.0000000000000000e+00  0.0000000000000000e+00 0.0000000000000000e+00 0.0000000000000000e+00  0.0000000000000000e+00 0.0000000000000000e+00 0.0000000000000000e+00  0.0000000000000000e+00 0.0000000000000000e+00 0.0000000000000000e+00  0.0000000000000000e+00 0.0000000000000000e+00 0.0000000000000000e+00  0.0000000000000000e+00 0.0000000000000000e+00 0.0000000000000000e+00  0.0000000000000000e+00 0.0000000000000000e+00 0.0000000000000000e+00  0.0000000000000000e+00 0.0000000000000000e+00 0.0000000000000000e+00  0.0000000000000000e+00 0.0000000000000000e+00 0.0000000000000000e+00  0.0000000000000000e+00 0.0000000000000000e+00 0.0000000000000000e+00  0.0000000000000000e+00 0.0000000000000000e+00 0.0000000000000000e+00  0.0000000000000000e+00 0.0000000000000000e+00 0.0000000000000000e+00  0.0000000000000000e+00 0.0000000000000000e+00 0.0000000000000000e+00  0.0000000000000000e+00 0.0000000000000000e+00 0.0000000000000000e+00  0.0000000000000000e+00 0.0000000000000000e+00 0.0000000000000000e+00  0.0000000000000000e+00 0.0000000000000000e+00 0.0000000000000000e+00  0.0000000000000000e+00 0.0000000000000000e+00 0.0000000000000000e+00  0.0000000000000000e+00 0.0000000000000000e+00 0.0000000000000000e+00  0.0000000000000000e+00 0.0000000000000000e+00 0.0000000000000000e+00  0.0000000000000000e+00 0.0000000000000000e+00 0.0000000000000000e+00  0.0000000000000000e+00 0.0000000000000000e+00 0.0000000000000000e+00  0.0000000000000000e+00 0.0000000000000000e+00 0.0000000000000000e+00  0.0000000000000000e+00 0.0000000000000000e+00 0.0000000000000000e+00  0.0000000000000000e+00 0.0000000000000000e+00 0.0000000000000000e+00  0.0000000000000000e+00 0.0000000000000000e+00 0.0000000000000000e+00  0.0000000000000000e+00 0.0000000000000000e+00 0.0000000000000000e+00  0.0000000000000000e+00 0.0000000000000000e+00 0.0000000000000000e+00  0.0000000000000000e+00 0.0000000000000000e+00 0.0000000000000000e+00  0.0000000000000000e+00 0.0000000000000000e+00 0.0000000000000000e+00  0.0000000000000000e+00 0.0000000000000000e+00 0.0000000000000000e+00  0.0000000000000000e+00 0.0000000000000000e+00 0.0000000000000000e+00  0.0000000000000000e+00 0.0000000000000000e+00 0.0000000000000000e+00  0.0000000000000000e+00 0.0000000000000000e+00 0.0000000000000000e+00  0.0000000000000000e+00 0.0000000000000000e+00 0.0000000000000000e+00  0.0000000000000000e+00 0.0000000000000000e+00 0.0000000000000000e+00  0.0000000000000000e+00 0.0000000000000000e+00 0.0000000000000000e+00  0.0000000000000000e+00 0.0000000000000000e+00 0.0000000000000000e+00  0.0000000000000000e+00 0.0000000000000000e+00 0.0000000000000000e+00  0.0000000000000000e+00 0.0000000000000000e+00 0.0000000000000000e+00  0.0000000000000000e+00 0.0000000000000000e+00 0.0000000000000000e+00  0.0000000000000000e+00 0.0000000000000000e+00 0.0000000000000000e+00  0.0000000000000000e+00 0.0000000000000000e+00 0.0000000000000000e+00  0.0000000000000000e+00 0.0000000000000000e+00 0.0000000000000000e+00  0.0000000000000000e+00 0.0000000000000000e+00 0.0000000000000000e+00  0.0000000000000000e+00 0.0000000000000000e+00 0.0000000000000000e+00  0.0000000000000000e+00 0.0000000000000000e+00 0.0000000000000000e+00  0.0000000000000000e+00 0.0000000000000000e+00 0.0000000000000000e+00  0.0000000000000000e+00 0.0000000000000000e+00 0.0000000000000000e+00  1.4381332274773109e+00 3.7045615629057521e-01 0.0000000000000000e+00  1.5758475041354423e+00 8.8154667183018243e-01 0.0000000000000000e+00  1.7834079053283025e+00 -5.4209036293038837e-01 0.0000000000000000e+00  1.2400772404930869e+00 -1.7277967180271017e-01 0.0000000000000000e+00  1.5851086872109919e+00 -4.9878359648295173e-01 0.0000000000000000e+00  1.5000002126834711e+00 0.0000000000000000e+00 0.0000000000000000e+00  1.2280316522368400e+00 1.8077247930023157e-02 0.0000000000000000e+00  1.3886175573987771e+00 1.3655773354665821e+00 0.0000000000000000e+00  1.5000002126834711e+00 0.0000000000000000e+00 0.0000000000000000e+00  0.0000000000000000e+00 0.0000000000000000e+00 0.0000000000000000e+00  1.2460224413463032e+00 2.8071981687247005e-01 0.0000000000000000e+00  0.0000000000000000e+00 0.0000000000000000e+00 0.0000000000000000e+00  0.0000000000000000e+00 0.0000000000000000e+00 0.0000000000000000e+00  1.6946501582274067e+00 7.6534797080062833e-01 0.0000000000000000e+00  0.0000000000000000e+00 0.0000000000000000e+00 0.0000000000000000e+00  0.0000000000000000e+00 0.0000000000000000e+00 0.0000000000000000e+00  0.0000000000000000e+00 0.0000000000000000e+00 0.0000000000000000e+00  1.9854848412888300e+00 -5.3740226128486457e-01 0.0000000000000000e+00  0.0000000000000000e+00 0.0000000000000000e+00 0.0000000000000000e+00  0.0000000000000000e+00 0.0000000000000000e+00 0.0000000000000000e+00  1.6022796820926766e+00 -7.9036470872639919e-01 0.0000000000000000e+00  0.0000000000000000e+00 0.0000000000000000e+00 0.0000000000000000e+00  0.0000000000000000e+00 0.0000000000000000e+00 0.0000000000000000e+00  0.0000000000000000e+00 0.0000000000000000e+00 0.0000000000000000e+00  0.0000000000000000e+00 0.0000000000000000e+00 0.0000000000000000e+00  0.0000000000000000e+00 0.0000000000000000e+00 0.0000000000000000e+00  0.0000000000000000e+00 0.0000000000000000e+00 0.0000000000000000e+00  0.0000000000000000e+00 0.0000000000000000e+00 0.0000000000000000e+00  1.3753376543956399e+00 2.4307349125246354e-02 0.0000000000000000e+00  1.2519943962434099e+00 1.2868766647774474e-01 0.0000000000000000e+00  5.8700347462235503e-01 1.8682629616780216e-01 0.0000000000000000e+00  1.6693601526332515e+00 -7.5160349527325765e-01 0.0000000000000000e+00  9.3566691081504827e-01 1.1636878002650385e-01 0.0000000000000000e+00  6.5852713437571941e-01 -9.4276827003690455e-01 0.0000000000000000e+00  3.7839986820926602e-01 8.3655643578617689e-01 0.0000000000000000e+00  3.4143911005958805e-01 -1.2299779987170780e+00 0.0000000000000000e+00  1.0459653375740809e+00 9.4303815336076180e-01 0.0000000000000000e+00  1.0253491200182066e+00 4.3802954453731210e-02 0.0000000000000000e+00  9.6137205552995930e-01 2.1253914490434469e-03 0.0000000000000000e+00  1.0459403284924380e+00 1.2706893015788047e-02 0.0000000000000000e+00  1.3074856594143371e+00 3.9848629057906265e-01 0.0000000000000000e+00  1.1250001595126033e+00 0.0000000000000000e+00 0.0000000000000000e+00  1.6171746017977893e+00 -2.4465659023801575e-01 0.0000000000000000e+00  8.5370439587766278e-01 2.8990426320034418e-01 0.0000000000000000e+00  1.8844851348861507e+00 1.3250600512351099e-01 0.0000000000000000e+00  8.3011028153399213e-01 -1.2515594169744706e+00 0.0000000000000000e+00  7.0634929031666460e-01 5.2072195020692214e-01 0.0000000000000000e+00  2.9468536091436875e-01 -3.5234076669786080e-01 0.0000000000000000e+00  1.1719805986255878e+00 6.7004696179632562e-04 0.0000000000000000e+00  1.5671118228681578e+00 3.5204137446475431e-01 0.0000000000000000e+00  1.1622026164560233e+00 -5.2678764391294042e-01 0.0000000000000000e+00  1.7446923506320526e+00 -1.2287619856966616e+00 0.0000000000000000e+00  1.1173692181062012e+00 1.0051907441239440e+00 0.0000000000000000e+00  1.4258060378822681e+00 -7.8648365795815939e-02 0.0000000000000000e+00  1.1044224961512006e+00 4.5336366556640285e-02 0.0000000000000000e+00  1.2052293748208203e+00 1.8804820029077900e-02 0.0000000000000000e+00  1.2147074176680763e+00 -4.8685699382290892e-02 0.0000000000000000e+00  0.0000000000000000e+00 0.0000000000000000e+00 0.0000000000000000e+00  1.1777385288837481e+00 -2.7583527948636583e-01 0.0000000000000000e+00  1.1250001595126033e+00 0.0000000000000000e+00 0.0000000000000000e+00  1.0531219102853402e+00 -3.0457762545495010e-01 0.0000000000000000e+00  0.0000000000000000e+00 0.0000000000000000e+00 0.0000000000000000e+00  1.2645525238748783e+00 1.2077438090159988e-02 0.0000000000000000e+00  1.1111962014268431e+00 2.5102271656572667e-01 0.0000000000000000e+00  6.1445946673300178e-01 4.8458174003146653e-01 0.0000000000000000e+00  1.6502817182329734e+00 5.5246918304303694e-01 0.0000000000000000e+00  0.0000000000000000e+00 0.0000000000000000e+00 0.0000000000000000e+00  1.3606193707570109e+00 3.1388210866583816e-01 0.0000000000000000e+00  1.1250001595126033e+00 0.0000000000000000e+00 0.0000000000000000e+00  1.4938323450413384e+00 -3.1962830102718159e-01 0.0000000000000000e+00  1.1250001595126033e+00 0.0000000000000000e+00 0.0000000000000000e+00  0.0000000000000000e+00 0.0000000000000000e+00 0.0000000000000000e+00  2.1928114196708415e+00 -7.8193332086413575e-02 0.0000000000000000e+00  1.9920227017780412e+00 2.7919095468870253e-01 0.0000000000000000e+00  9.6291977543830587e-01 -2.3357360616224129e-01 0.0000000000000000e+00  0.0000000000000000e+00 0.0000000000000000e+00 0.0000000000000000e+00  7.7306232107124795e-01 5.0656170210695428e-01 0.0000000000000000e+00  1.4601444079496146e+00 1.0589709251172932e+00 0.0000000000000000e+00  1.7786126535267706e+00 -1.1995165882464149e+00 0.0000000000000000e+00  9.5164661834511921e-01 -4.5021677376434571e-01 0.0000000000000000e+00  1.1947602190026780e+00 -8.7616326384311993e-01 0.0000000000000000e+00  1.2971863786687468e+00 1.1177231248782664e+00 0.0000000000000000e+00  1.2156541064520245e+00 1.3297022692000859e-01 0.0000000000000000e+00  1.4787039314251844e+00 -1.1119380047135301e+00 0.0000000000000000e+00  1.5456292269030396e+00 1.2329633336838865e-01 0.0000000000000000e+00  1.4360877857351959e+00 3.4146452949203748e-01 0.0000000000000000e+00  1.6819090344947594e+00 -1.3386052167979334e-01 0.0000000000000000e+00  1.8768718042739898e+00 6.0074827656737850e-01 0.0000000000000000e+00  6.5277311774760272e-01 -1.1902134522433630e-01 0.0000000000000000e+00  9.5087800307727621e-01 3.3186507219293276e-01 0.0000000000000000e+00  0.0000000000000000e+00 0.0000000000000000e+00 0.0000000000000000e+00  1.8031445345510848e+00 5.4795761981668856e-01 0.0000000000000000e+00  0.0000000000000000e+00 0.0000000000000000e+00 0.0000000000000000e+00  0.0000000000000000e+00 0.0000000000000000e+00 0.0000000000000000e+00  0.0000000000000000e+00 0.0000000000000000e+00 0.0000000000000000e+00  0.0000000000000000e+00 0.0000000000000000e+00 0.0000000000000000e+00  0.0000000000000000e+00 0.0000000000000000e+00 0.0000000000000000e+00  0.0000000000000000e+00 0.0000000000000000e+00 0.0000000000000000e+00  0.0000000000000000e+00 0.0000000000000000e+00 0.0000000000000000e+00  0.0000000000000000e+00 0.0000000000000000e+00 0.0000000000000000e+00  1.0176688443309143e+00 7.8163533590172848e-02 0.0000000000000000e+00  0.0000000000000000e+00 0.0000000000000000e+00 0.0000000000000000e+00  0.0000000000000000e+00 0.0000000000000000e+00 0.0000000000000000e+00  0.0000000000000000e+00 0.0000000000000000e+00 0.0000000000000000e+00  0.0000000000000000e+00 0.0000000000000000e+00 0.0000000000000000e+00  0.0000000000000000e+00 0.0000000000000000e+00 0.0000000000000000e+00  0.0000000000000000e+00 0.0000000000000000e+00 0.0000000000000000e+00  0.0000000000000000e+00 0.0000000000000000e+00 0.0000000000000000e+00  0.0000000000000000e+00 0.0000000000000000e+00 0.0000000000000000e+00  0.0000000000000000e+00 0.0000000000000000e+00 0.0000000000000000e+00  0.0000000000000000e+00 0.0000000000000000e+00 0.0000000000000000e+00  0.0000000000000000e+00 0.0000000000000000e+00 0.0000000000000000e+00  0.0000000000000000e+00 0.0000000000000000e+00 0.0000000000000000e+00  0.0000000000000000e+00 0.0000000000000000e+00 0.0000000000000000e+00  0.0000000000000000e+00 0.0000000000000000e+00 0.0000000000000000e+00  0.0000000000000000e+00 0.0000000000000000e+00 0.0000000000000000e+00  0.0000000000000000e+00 0.0000000000000000e+00 0.0000000000000000e+00  0.0000000000000000e+00 0.0000000000000000e+00 0.0000000000000000e+00  0.0000000000000000e+00 0.0000000000000000e+00 0.0000000000000000e+00  1.2107063649035834e+00 9.1404012990475587e-03 0.0000000000000000e+00  2.2329402898665640e-01 4.8373276309119423e-01 0.0000000000000000e+00  9.7330632810196638e-01 -4.5634547706315892e-01 0.0000000000000000e+00  1.2152799456838774e+00 -1.5989551671619873e-01 0.0000000000000000e+00  1.3720417005052197e+00 -6.9526278033143107e-01 0.0000000000000000e+00  8.4276079725858710e-01 8.6518059222611754e-01 0.0000000000000000e+00  7.2222646678690794e-01 -6.1437838374171705e-01 0.0000000000000000e+00  9.3956062902952386e-01 5.1068599280260758e-02 0.0000000000000000e+00  1.3285212301938985e+00 -1.1589842326497427e-01 0.0000000000000000e+00  1.3964487211279375e+00 1.6892329787752906e-02 0.0000000000000000e+00  1.2640529304907491e+00 -1.9230715742106902e-01 0.0000000000000000e+00  1.2351320334508946e+00 1.0701871907978109e-02 0.0000000000000000e+00  1.2338117113351719e+00 6.1488687487665686e-02 0.0000000000000000e+00  2.0209836357154520e+00 -6.4148295427596347e-01 0.0000000000000000e+00  5.1425709989150314e-01 -2.5804148027952645e-01 0.0000000000000000e+00  1.3463649066987136e+00 -3.2824986448708193e-01 0.0000000000000000e+00  1.4025615791348345e+00 -3.2009810975989388e-03 0.0000000000000000e+00  1.9002444994540839e+00 -1.7782580898991435e-01 0.0000000000000000e+00  1.3839417688206614e+00 2.3438904493616289e-04 0.0000000000000000e+00  1.3692596301244107e+00 8.4583431877900996e-03 0.0000000000000000e+00  1.1621855721522214e+00 8.7559220932884860e-02 0.0000000000000000e+00  -4.6787941870359173e-02 1.1461181057441062e-01 0.0000000000000000e+00  8.6051666532325022e-01 1.0814751335879574e-01 0.0000000000000000e+00  -8.5388908837062771e-01 -8.5726746412549704e-01 0.0000000000000000e+00  1.1454309726060183e+00 1.1916002175141796e-01 0.0000000000000000e+00  2.0428353016399230e+00 2.9401365745446589e-01 0.0000000000000000e+00  2.2645977088813556e+00 1.1753594829356011e+00 0.0000000000000000e+00  8.6070987301135571e-01 2.0439948232236244e-02 0.0000000000000000e+00  8.6412413070688809e-01 5.2446330478677413e-03 0.0000000000000000e+00  9.4898065840699442e-01 -2.2445074769752897e-03 0.0000000000000000e+00  8.3695740846741884e-01 -5.3674090844930680e-03 0.0000000000000000e+00  1.6059350477198540e+00 6.1129450476076852e-01 0.0000000000000000e+00  1.9362762541197462e+00 6.1935617998514758e-01 0.0000000000000000e+00  1.1898022858141390e-01 -6.3125331538461937e-01 0.0000000000000000e+00  9.8837468342970503e-01 1.1385523204334702e-02 0.0000000000000000e+00  9.4167440586114348e-01 4.5796005049018429e-02 0.0000000000000000e+00  1.2684137473990151e+00 4.5792874060787286e-01 0.0000000000000000e+00  1.0216884007562439e+00 9.3158197664851516e-01 0.0000000000000000e+00  1.7682253922863409e+00 -4.1243284629692206e-01 0.0000000000000000e+00  1.2672547348859120e+00 -1.0145872504027789e+00 0.0000000000000000e+00  -4.6746418423204489e-01 -1.8143813605979242e-01 0.0000000000000000e+00  1.8782927602237331e-01 5.8515757360562404e-01 0.0000000000000000e+00  1.3550515614999141e+00 7.6591980897424361e-01 0.0000000000000000e+00  -5.2865259033519685e-01 -4.1191542265109343e-01 0.0000000000000000e+00  -3.7576102891094804e-01 1.5355490796470231e-01 0.0000000000000000e+00  7.5251332783989855e-01 -5.4672473016714473e-01 0.0000000000000000e+00  9.7806579683889006e-01 4.5961758590316137e-01 0.0000000000000000e+00  4.8587126624459587e-01 -2.8364077193077053e-01 0.0000000000000000e+00  1.5772102993442934e+00 -8.3956788593379642e-02 0.0000000000000000e+00  6.5625009304901849e-01 0.0000000000000000e+00 0.0000000000000000e+00  8.5717176588018507e-01 -1.0903174558517512e-02 0.0000000000000000e+00  2.9702544251340735e-01 -3.0109000619920645e-01 0.0000000000000000e+00  6.8514346529341053e-01 2.7585034403004419e-02 0.0000000000000000e+00  7.9355736757883755e-01 7.1080635261597622e-02 0.0000000000000000e+00  7.4823228516725326e-01 7.4147326969336864e-03 0.0000000000000000e+00  1.2971847027078813e+00 4.9737923983176141e-01 0.0000000000000000e+00  1.0576514733608551e+00 -3.7939762484824523e-02 0.0000000000000000e+00  1.3339559415158697e+00 -8.7080747593045216e-01 0.0000000000000000e+00  1.7342947311175803e+00 1.0110258157745153e+00 0.0000000000000000e+00  1.4916010709931571e+00 -3.2411909462922101e-01 0.0000000000000000e+00  7.4411719501738349e-01 4.9188522022273244e-02 0.0000000000000000e+00  1.1899809287082483e+00 1.7894939362581880e-01 0.0000000000000000e+00  1.4149034103913829e+00 6.2325800019332211e-01 0.0000000000000000e+00  1.6723318702872934e+00 5.0798966126701062e-01 0.0000000000000000e+00  6.6118005473648545e-01 -6.4559129615364655e-02 0.0000000000000000e+00  1.2341987680095585e+00 -2.6620893863988488e-02 0.0000000000000000e+00  1.0858282506264911e+00 5.4961092023931102e-01 0.0000000000000000e+00  1.2654307785299257e+00 -7.5091232865046403e-02 0.0000000000000000e+00  9.5596061816930133e-01 -1.8092830985707117e-01 0.0000000000000000e+00  1.2130969217297516e+00 -3.9952127787864378e-01 0.0000000000000000e+00  4.4889292654779073e-01 -3.5115126502485716e-01 0.0000000000000000e+00  1.5946001917398203e+00 -1.1184822106857770e+00 0.0000000000000000e+00  1.4523552117769805e+00 -1.8041831677663437e-02 0.0000000000000000e+00  1.5920067331548093e+00 -2.2561842474509963e-01 0.0000000000000000e+00  8.0116625225258553e-01 9.3863090537931837e-01 0.0000000000000000e+00  1.7326014572175417e+00 -6.7842234492247999e-01 0.0000000000000000e+00  1.1013101076934595e+00 9.5736518884937130e-02 0.0000000000000000e+00  1.4155371340412801e+00 5.2931128605897360e-01 0.0000000000000000e+00  1.2214834613084722e+00 -6.2542838507498544e-01 0.0000000000000000e+00  1.3505716951766273e+00 1.1587807620363058e-01 0.0000000000000000e+00  1.4551487299384929e+00 -3.0587230727167997e-01 0.0000000000000000e+00  1.1930360520400021e+00 4.5045469388966902e-01 0.0000000000000000e+00  9.4749767879062319e-01 -4.2859596907473527e-02 0.0000000000000000e+00  7.4891696981798772e-01 9.2908533924674214e-03 0.0000000000000000e+00  1.4127299222586476e+00 4.2138245469795543e-01 0.0000000000000000e+00  1.9990111691846999e+00 -1.4331307336806431e+00 0.0000000000000000e+00  4.2658826404585842e-01 -1.1622576090027761e-01 0.0000000000000000e+00  6.6188881849333003e-01 8.2475972330322597e-02 0.0000000000000000e+00  8.7938594988170818e-02 -6.0669708189952432e-01 0.0000000000000000e+00  1.7047560564700333e+00 -3.7983801427500524e-01 0.0000000000000000e+00  1.7150237070186396e+00 1.1428748180431270e+00 0.0000000000000000e+00  2.1768531160952360e+00 1.0553049113965331e-01 0.0000000000000000e+00  1.1714906737640716e+00 1.8464394324693056e-01 0.0000000000000000e+00  1.1222550959427229e+00 -9.5075791056035719e-01 0.0000000000000000e+00  7.3308181216902124e-01 -3.6346132690543353e-01 0.0000000000000000e+00  3.7220226609622320e-01 4.5477815785273518e-01 0.0000000000000000e+00  1.0265537818044819e+00 -2.0220307193576847e-01 0.0000000000000000e+00  1.5702072062589774e+00 -6.1835473596781286e-03 0.0000000000000000e+00  1.0358939762572958e+00 1.5319998337897750e-01 0.0000000000000000e+00  2.2918391574182193e-01 2.5583241584193411e-01 0.0000000000000000e+00  2.7166438944019750e-01 1.2616569795032714e-01 0.0000000000000000e+00  1.1790534345778230e+00 -3.5176722767420393e-01 0.0000000000000000e+00  1.0494932066581852e+00 -3.0740806971664512e-03 0.0000000000000000e+00  1.1384801175595423e+00 1.1422037133829416e-02 0.0000000000000000e+00  1.2520457627203352e+00 3.9995448744621165e-01 0.0000000000000000e