<?xml version="1.0"?>
<VTKFile type="UnstructuredGrid"  version="0.1"  >
<UnstructuredGrid>
<Piece  NumberOfPoints="4269" NumberOfCells="8234">
<Points>
<DataArray  type="Float64"  NumberOfComponents="3"  format="ascii">0 1 0  0 0 0  7.5 0 0  7.5 1 0  1.197537668119028 0.5812868930080463 0  1.2 0.55 0  1.197537668119028 0.5187131069919538 0  1.190211303259031 0.4881966011250105 0  1.178201304837674 0.4592019000520907 0  1.161803398874989 0.4324429495415054 0  1.141421356237309 0.4085786437626905 0  1.117557050458495 0.3881966011250105 0  1.090798099947909 0.3717986951623264 0  1.06180339887499 0.3597886967409693 0  1.031286893008046 0.3524623318809725 0  1 0.35 0  0.9687131069919538 0.3524623318809725 0  0.9381966011250105 0.3597886967409694 0  0.9092019000520906 0.3717986951623264 0  0.8824429495415054 0.3881966011250105 0  0.8585786437626904 0.4085786437626905 0  0.8381966011250105 0.4324429495415054 0  0.8217986951623264 0.4592019000520907 0  0.8097886967409692 0.4881966011250107 0  0.8024623318809725 0.5187131069919539 0  0.8 0.55 0  0.8024623318809725 0.5812868930080463 0  0.8097886967409693 0.6118033988749896 0  0.8217986951623264 0.6407980999479095 0  0.8381966011250105 0.6675570504584947 0  0.8585786437626906 0.6914213562373096 0  0.8824429495415054 0.7118033988749896 0  0.9092019000520907 0.7282013048376736 0  0.9381966011250106 0.7402113032590307 0  0.9687131069919539 0.7475376681190276 0  1 0.75 0  1.031286893008046 0.7475376681190276 0  1.06180339887499 0.7402113032590307 0  1.090798099947909 0.7282013048376736 0  1.117557050458495 0.7118033988749896 0  1.141421356237309 0.6914213562373095 0  1.161803398874989 0.6675570504584947 0  1.178201304837674 0.6407980999479094 0  1.190211303259031 0.6118033988749896 0  3.75 0 0  3.75 1 0  1.875 0 0  1.875 1 0  0.9375 0 0  0.9375 1 0  1.40625 1 0  5.625 1 0  5.625 0 0  2.8125 1 0  2.8125 0 0  4.6875 0 0  4.6875 1 0  6.5625 0 0  6.5625 1 0  5.15625 0.5 0  4.21875 0.5 0  2.34375 0.5 0  3.28125 0.5 0  6.09375 0.5 0  7.5 0.5 0  6.897916666666666 0.5 0  1.842708333333333 0.5 0  0 0.5 0  0.46875 0 0  5.625 0.5302734375 0  7.03125 0 0  6.09375 1 0  2.8125 0.4697265625 0  3.28125 0 0  2.34375 1 0  2.34375 0 0  3.75 0.4697265625 0  4.21875 0 0  4.21875 1 0  4.6875 0.5302734375 0  3.28125 1 0  5.15625 0 0  6.09375 0 0  5.15625 1 0  0.46875 1 0  1.40625 0 0  7.03125 1 0  0.3954638734376499 0.5975780249976004 0  6.495833333333334 0.4072265624999998 0  5.859375 0.25 0  4.905729166666666 0.26513671875 0  4.453125 0.25 0  3.531770833333333 0.73486328125 0  3.968229166666667 0.73486328125 0  2.594270833333333 0.73486328125 0  3.030729166666667 0.73486328125 0  6.328125 0.75 0  7.198958333333334 0.3125000000000002 0  7.198958333333334 0.6874999999999998 0  5.390625 0.25 0  0 0.25 0  2.109375 0.75 0  2.109375 0.25 0  1.51921323205749 0.3418883887525936 0  1.522346610178253 0.6811769608297746 0  5.375456746419271 0.75 0  4.921875 0.76513671875 0  4.437956746419271 0.75 0  3.984375 0.23486328125 0  3.500456746419271 0.25 0  2.578125 0.23486328125 0  3.046875 0.23486328125 0  5.874543253580729 0.75 0  6.642123189445656 0.6909095493086836 0  6.746354166666666 0.2391688368055553 0  0.3197109619185111 0.2850049285972083 0  6.328125 0 0  0.6313375889370429 0.2351325552547357 0  0 0.75 0  6.252283381534729 0.2693808819694041 0  0.234375 1 0  6.948437500000001 0.7543055555555555 0  0.5934018769555939 0.7694151657947577 0  1.858854166666667 0.75 0  1.858854166666667 0.25 0  1.640625 0 0  2.093229166666667 0.5 0  7.5 0.25 0  3.282227579752604 0.75 0  7.5 0.75 0  1.171875 0 0  1.303539853147731 0.2235426933121065 0  5.148177083333333 0.2575683593749998 0  2.351822916666667 0.742431640625 0  1.640625 1 0  4.202380413457425 0.7645435094236485 0  3.047822985053062 0.4701848030090332 0  2.577177014946938 0.4701848030090332 0  4.672792740482199 0.76513671875 0  4.922822985053062 0.5298151969909668 0  5.390593497949761 0.5156244924311331 0  5.610292740482199 0.76513671875 0  3.516602579752604 0.5 0  4.45496853898097 0.4865915990446593 0  5.85753146101903 0.4865915990446593 0  3.749511210123698 0.23486328125 0  3.983397420247396 0.4999999999999999 0  2.343497975411212 0.2346270081980111 0  4.219002024588788 0.2346270081980111 0  0.703125 0 0  2.8125 0.2343755075688669 0  3.046875 0 0  2.578125 0 0  3.515625 0 0  3.984375 0 0  4.453125 1 0  5.390625 1 0  2.109375 0 0  2.109375 1 0  5.625 0.2921402030705575 0  5.390625 0 0  7.265625 0 0  6.796875 0 0  6.328125 1 0  3.046875 1 0  2.578125 1 0  3.984375 1 0  3.515625 1 0  4.453125 0 0  4.921875 0 0  5.859375 0 0  0.703125 1 0  1.171875 1 0  7.265625 1 0  4.921875 1 0  5.859375 1 0  0.234375 0 0  6.796875 1 0  6.980310975276531 0.2285890127127066 0  5.149170481934885 0.772689292163473 0  3.274170481934884 0.2273107078365268 0  6.101334126790364 0.7722468376159667 0  4.678005340872584 0.3000799877067239 0  2.8125 0.6921051326382495 0  3.75 0.6921051326382495 0  0.3515624999999999 0.8134571721668546 0  0.4990405774417521 0.4070099317153735 0  0.1789273931360182 0.625 0  6.31239060814315 0.5298877111157968 0  6.456979773992304 0.1917956348713352 0  6.699870808919271 0.4406293402777773 0  1.337539480965883 0.7944303676599538 0  6.058675797563041 0.2019812164653516 0  0.8203125 0.1643029084422534 0  0.1480856513011711 0.375 0  1.090769294689562 0.1719186776982972 0  7.291088163206459 0.5 0  7.094502414936563 0.5197902199074071 0  0.6046212059042245 0.5730066483871106 0  1.707231580809486 0.6342709161352207 0  1.685961352504593 0.8193269193390785 0  1.374721602852827 0.4600373025865813 0  6.486415510043844 0.5916440776477192 0  1.5234375 0.1508863828685116 0  1.707925830421689 0.3657739208189008 0  0.1674513225045584 0.8278776664019765 0  7.138268756771176 0.1438183366439137 0  7.1484375 0.8616388888888887 0  7.328562530764119 0.819498462930605 0  4.101073710123698 0.3678637200736647 0  1.693878467219965 0.1911955120941053 0  1.577566745468488 0.5110082404081502 0  6.6796875 0.8653871806883484 0  6.498039504430512 0.825568433346395 0  0.7562556668576472 0.8333197949571929 0  4.101045914668806 0.6255195807449272 0  5.030745188395182 0.382829047309028 0  2.476364945868651 0.6095868094762166 0  2.729359843907322 0.8460525663191247 0  2.9296875 0.8740763101564099 0  3.163518307559356 0.6254622797994247 0  3.666859843907322 0.8460525663191247 0  3.8671875 0.8740763101564099 0  4.8046875 0.12592368984359 0  3.14936031382311 0.8606990583876851 0  2.4609375 0.8747622921397776 0  5.023140791101972 0.1392266772452574 0  0 0.125 0  0.1759922923594607 0.1727589856739889 0  4.5703125 0.125 0  7.327755777818006 0.1766156770456191 0  5.5078125 0.125 0  5.719712725029036 0.1460701015352787 0  4.327848962028002 0.3674169956512513 0  5.982681121544351 0.3692637923021713 0  3.398926289876302 0.6245417594909667 0  5.281756792511996 0.3827993367299961 0  2.226822645963271 0.6252438868405666 0  2.234390064317166 0.8676616584526566 0  5.2734375 0.125 0  1.96796875 0.382568359375 0  2.234651037971999 0.3674169956512511 0  1.984114583333333 0.132568359375 0  1.9921875 0.875 0  1.984114583333333 0.632568359375 0  5.748733794462357 0.8678269127183313 0  3.3984375 0.875456329184688 0  1.512925924995415 0.8582958012121853 0  1.359299372802969 0.6275861864990343 0  4.810521420483513 0.4041767793635395 0  0.2996213306116602 0.455339710363317 0  5.999933717403708 0.6388425470751088 0  5.250033449003657 0.6388713364551682 0  3.631676045992918 0.3525406652400928 0  4.3359375 0.8816499670325881 0  4.343577437052484 0.6116511299909198 0  3.375033449003656 0.3611286635448316 0  5.763152151652243 0.6249404690537395 0  4.549347848347757 0.6249404690537396 0  5.5004588702411 0.6403667365776566 0  5.976118394847484 0.8816230218343086 0  5.054722486865804 0.6338007028640954 0  3.164542163493752 0.3520519332736524 0  2.445407482032355 0.3672168403687257 0  4.8046875 0.882568359375 0  4.1015625 0.117431640625 0  2.4609375 0.117431640625 0  2.695556894938151 0.3520510350344335 0  2.929443105061849 0.3520510350344335 0  3.881979231817319 0.3670559016511187 0  3.8671875 0.117431640625 0  4.805389247695744 0.6470047893641744 0  3.399370721942191 0.1184066543556767 0  5.274370721942192 0.881593345644323 0  3.618253274934649 0.1316869186284249 0  2.6953125 0.1171877537844335 0  2.9296875 0.1171877537844335 0  2.21873344389451 0.125 0  4.3359375 0.1171877625080073 0  0.6659898565672709 0.3986593551313873 0  7.363359022954956 0.3481046411219251 0  7.363359022954956 0.6518953588780749 0  5.487719392831826 0.3828237631077121 0  2.695054578344725 0.5809158475691247 0  2.944553877887707 0.5964065668438148 0  0.3515625 0.1201898858097106 0  5.5078125 1 0  4.5703125 1 0  5.031746201297604 0.882568359375 0  3.1640625 0 0  6.2109375 1 0  6.186845385763124 0.6336356480571081 0  4.1015625 1 0  6.810399074069772 0.6495574751396682 0  0.4740615253480797 0.2509287743856873 0  7.052064303830151 0.3684417917792242 0  6.195177069665382 0.1216488332168849 0  5.72300154718324 0.4112068202852788 0  3.879157465495092 0.6111892850691246 0  3.645760045247695 0.5809158475691247 0  6.868257400485771 0.3427840810237202 0  6.612030892260864 0.1521752713064389 0  6.615666885941117 0.3151079644097221 0  4.04296875 0.8633718902669071 0  1.183031453639096 0.8486801864185936 0  6.9140625 0 0  6.859079526500421 0.1398292786950638 0  6.808232443325651 0.7957411753922057 0  6.9140625 1 0  4.544955211100143 0.3675874343205077 0  1.0546875 1 0  6.122060236165557 0.3316791557072867 0  0.5859375 0 0  5.9765625 0 0  5.44921875 0.870984788733638 0  4.51171875 0.870984788733638 0  0.7608354256382215 0.2931261274224557 0  6.386875332239937 0.3156583003094978 0  6.985654756850997 0.6147408423643147 0  6.223797257919172 0.8535621912121121 0  5.936822413218736 0.1338376546337823 0  6.23933008800134 0.4095573603773768 0  0.5414022462152697 0.1305482677949959 0  6.331360438104348 0.1370086318183389 0  0.956404929269873 0.1374266563647954 0  1.2890625 1 0  0.691305981127761 0.6764829884281737 0  3.531251607241209 0.8678916320952239 0  2.59787442813022 
[...]
<PointData  Vectors="f_71627"> 
<DataArray  type="Float64"  Name="f_71627"  NumberOfComponents="3" format="ascii">0.0000000000000000e+00 0.0000000000000000e+00 0.0000000000000000e+00  0.0000000000000000e+00 0.0000000000000000e+00 0.0000000000000000e+00  0.0000000000000000e+00 0.0000000000000000e+00 0.0000000000000000e+00  0.0000000000000000e+00 0.0000000000000000e+00 0.0000000000000000e+00  0.0000000000000000e+00 0.0000000000000000e+00 0.0000000000000000e+00  0.0000000000000000e+00 0.0000000000000000e+00 0.0000000000000000e+00  0.0000000000000000e+00 0.0000000000000000e+00 0.0000000000000000e+00  0.0000000000000000e+00 0.0000000000000000e+00 0.0000000000000000e+00  0.0000000000000000e+00 0.0000000000000000e+00 0.0000000000000000e+00  0.0000000000000000e+00 0.0000000000000000e+00 0.0000000000000000e+00  0.0000000000000000e+00 0.0000000000000000e+00 0.0000000000000000e+00  0.0000000000000000e+00 0.0000000000000000e+00 0.0000000000000000e+00  0.0000000000000000e+00 0.0000000000000000e+00 0.0000000000000000e+00  0.0000000000000000e+00 0.0000000000000000e+00 0.0000000000000000e+00  0.0000000000000000e+00 0.0000000000000000e+00 0.0000000000000000e+00  0.0000000000000000e+00 0.0000000000000000e+00 0.0000000000000000e+00  0.0000000000000000e+00 0.0000000000000000e+00 0.0000000000000000e+00  0.0000000000000000e+00 0.0000000000000000e+00 0.0000000000000000e+00  0.0000000000000000e+00 0.0000000000000000e+00 0.0000000000000000e+00  0.0000000000000000e+00 0.0000000000000000e+00 0.0000000000000000e+00  0.0000000000000000e+00 0.0000000000000000e+00 0.0000000000000000e+00  0.0000000000000000e+00 0.0000000000000000e+00 0.0000000000000000e+00  0.0000000000000000e+00 0.0000000000000000e+00 0.0000000000000000e+00  0.0000000000000000e+00 0.0000000000000000e+00 0.0000000000000000e+00  0.0000000000000000e+00 0.0000000000000000e+00 0.0000000000000000e+00  0.0000000000000000e+00 0.0000000000000000e+00 0.0000000000000000e+00  0.0000000000000000e+00 0.0000000000000000e+00 0.0000000000000000e+00  0.0000000000000000e+00 0.0000000000000000e+00 0.0000000000000000e+00  0.0000000000000000e+00 0.0000000000000000e+00 0.0000000000000000e+00  0.0000000000000000e+00 0.0000000000000000e+00 0.0000000000000000e+00  0.0000000000000000e+00 0.0000000000000000e+00 0.0000000000000000e+00  0.0000000000000000e+00 0.0000000000000000e+00 0.0000000000000000e+00  0.0000000000000000e+00 0.0000000000000000e+00 0.0000000000000000e+00  0.0000000000000000e+00 0.0000000000000000e+00 0.0000000000000000e+00  0.0000000000000000e+00 0.0000000000000000e+00 0.0000000000000000e+00  0.0000000000000000e+00 0.0000000000000000e+00 0.0000000000000000e+00  0.0000000000000000e+00 0.0000000000000000e+00 0.0000000000000000e+00  0.0000000000000000e+00 0.0000000000000000e+00 0.0000000000000000e+00  0.0000000000000000e+00 0.0000000000000000e+00 0.0000000000000000e+00  0.0000000000000000e+00 0.0000000000000000e+00 0.0000000000000000e+00  0.0000000000000000e+00 0.0000000000000000e+00 0.0000000000000000e+00  0.0000000000000000e+00 0.0000000000000000e+00 0.0000000000000000e+00  0.0000000000000000e+00 0.0000000000000000e+00 0.0000000000000000e+00  0.0000000000000000e+00 0.0000000000000000e+00 0.0000000000000000e+00  0.0000000000000000e+00 0.0000000000000000e+00 0.0000000000000000e+00  0.0000000000000000e+00 0.0000000000000000e+00 0.0000000000000000e+00  0.0000000000000000e+00 0.0000000000000000e+00 0.0000000000000000e+00  0.0000000000000000e+00 0.0000000000000000e+00 0.0000000000000000e+00  0.0000000000000000e+00 0.0000000000000000e+00 0.0000000000000000e+00  0.0000000000000000e+00 0.0000000000000000e+00 0.0000000000000000e+00  0.0000000000000000e+00 0.0000000000000000e+00 0.0000000000000000e+00  0.0000000000000000e+00 0.0000000000000000e+00 0.0000000000000000e+00  0.0000000000000000e+00 0.0000000000000000e+00 0.0000000000000000e+00  0.0000000000000000e+00 0.0000000000000000e+00 0.0000000000000000e+00  0.0000000000000000e+00 0.0000000000000000e+00 0.0000000000000000e+00  0.0000000000000000e+00 0.0000000000000000e+00 0.0000000000000000e+00  0.0000000000000000e+00 0.0000000000000000e+00 0.0000000000000000e+00  0.0000000000000000e+00 0.0000000000000000e+00 0.0000000000000000e+00  0.0000000000000000e+00 0.0000000000000000e+00 0.0000000000000000e+00  1.1145767402936859e+00 6.5508629695738439e-04 0.0000000000000000e+00  1.1189283875868987e+00 -5.1487837033829592e-03 0.0000000000000000e+00  1.9192277586479740e+00 -7.9587301306648622e-02 0.0000000000000000e+00  1.0459181344837132e+00 -2.2905159248974025e-01 0.0000000000000000e+00  1.1136489743260836e+00 -9.4533696001806501e-04 0.0000000000000000e+00  1.5000002043548086e+00 0.0000000000000000e+00 0.0000000000000000e+00  1.1929148811510353e+00 -2.5163524051737235e-03 0.0000000000000000e+00  3.8773507428248782e-01 8.3000516436565164e-01 0.0000000000000000e+00  1.5000002043548086e+00 0.0000000000000000e+00 0.0000000000000000e+00  0.0000000000000000e+00 0.0000000000000000e+00 0.0000000000000000e+00  1.1213518258531487e+00 4.9803525727499110e-04 0.0000000000000000e+00  0.0000000000000000e+00 0.0000000000000000e+00 0.0000000000000000e+00  0.0000000000000000e+00 0.0000000000000000e+00 0.0000000000000000e+00  2.0658095061873643e+00 7.9253861947569215e-01 0.0000000000000000e+00  0.0000000000000000e+00 0.0000000000000000e+00 0.0000000000000000e+00  0.0000000000000000e+00 0.0000000000000000e+00 0.0000000000000000e+00  0.0000000000000000e+00 0.0000000000000000e+00 0.0000000000000000e+00  1.1099711283755074e+00 -3.7531791082547263e-02 0.0000000000000000e+00  0.0000000000000000e+00 0.0000000000000000e+00 0.0000000000000000e+00  0.0000000000000000e+00 0.0000000000000000e+00 0.0000000000000000e+00  1.1183062146504001e+00 -2.7454092179075547e-04 0.0000000000000000e+00  0.0000000000000000e+00 0.0000000000000000e+00 0.0000000000000000e+00  0.0000000000000000e+00 0.0000000000000000e+00 0.0000000000000000e+00  0.0000000000000000e+00 0.0000000000000000e+00 0.0000000000000000e+00  0.0000000000000000e+00 0.0000000000000000e+00 0.0000000000000000e+00  0.0000000000000000e+00 0.0000000000000000e+00 0.0000000000000000e+00  0.0000000000000000e+00 0.0000000000000000e+00 0.0000000000000000e+00  0.0000000000000000e+00 0.0000000000000000e+00 0.0000000000000000e+00  1.3592106183679822e+00 -6.5715573271911271e-02 0.0000000000000000e+00  1.1405020577381604e+00 -5.9203695977228018e-03 0.0000000000000000e+00  1.1197256763011767e+00 -3.7893934348345449e-03 0.0000000000000000e+00  1.1032827317230609e+00 3.3914208367959051e-04 0.0000000000000000e+00  1.1002518491955577e+00 2.5952673708363463e-04 0.0000000000000000e+00  1.1858216291286212e+00 -6.0200783190937301e-02 0.0000000000000000e+00  1.1314197793960017e+00 -9.9438109583425659e-03 0.0000000000000000e+00  4.9334167050307920e-01 4.1467409337848676e-01 0.0000000000000000e+00  1.3325867401439755e+00 2.6907540060253671e-01 0.0000000000000000e+00  1.1203633947601226e+00 -1.6044551031293070e-03 0.0000000000000000e+00  8.2010580252500587e-01 -1.0006741533299876e-03 0.0000000000000000e+00  9.6111809577684426e-01 1.5826945293867307e-02 0.0000000000000000e+00  1.1073104361562027e+00 1.8107657686276227e-03 0.0000000000000000e+00  1.1250001532661063e+00 0.0000000000000000e+00 0.0000000000000000e+00  7.5299645381617808e-01 -5.5168336141158403e-01 0.0000000000000000e+00  6.5380693444688753e-01 -2.9593596265235772e-01 0.0000000000000000e+00  2.2181085445803066e+00 9.4851892101936974e-01 0.0000000000000000e+00  -2.4188259198607007e-01 1.4350242275515124e-01 0.0000000000000000e+00  1.1171904927692855e+00 1.5664342636506001e-03 0.0000000000000000e+00  1.1207112491231976e+00 2.4249251572859847e-03 0.0000000000000000e+00  1.1211829613790165e+00 -6.4401313377258234e-04 0.0000000000000000e+00  1.0998273877726068e+00 -9.5486277829678091e-03 0.0000000000000000e+00  1.0347315072686403e+00 -5.4454605213227987e-02 0.0000000000000000e+00  1.3268547014229417e+00 5.1722021223663550e-01 0.0000000000000000e+00  8.1347889693702446e-01 -2.1128068704592329e-01 0.0000000000000000e+00  1.1223155519484804e+00 2.1305136044275194e-04 0.0000000000000000e+00  1.1006610695092958e+00 -5.7666347120131196e-04 0.0000000000000000e+00  1.1192147826704881e+00 -9.1386160520811228e-03 0.0000000000000000e+00  1.2417799946864259e+00 -1.1284276393122901e-01 0.0000000000000000e+00  0.0000000000000000e+00 0.0000000000000000e+00 0.0000000000000000e+00  1.2972849513686919e+00 -3.3747710685566973e-01 0.0000000000000000e+00  1.1250001532661063e+00 0.0000000000000000e+00 0.0000000000000000e+00  1.1285386257153727e+00 1.1083058821698804e-04 0.0000000000000000e+00  0.0000000000000000e+00 0.0000000000000000e+00 0.0000000000000000e+00  1.2596450198350344e+00 -3.5000394227849385e-03 0.0000000000000000e+00  9.9660897233458667e-01 1.7060624256085583e-01 0.0000000000000000e+00  2.0216657105929907e+00 -9.0142343872164388e-01 0.0000000000000000e+00  1.0974710109704524e+00 1.4925981007867170e-01 0.0000000000000000e+00  0.0000000000000000e+00 0.0000000000000000e+00 0.0000000000000000e+00  2.2326246243129537e+00 -1.3359366779610424e+00 0.0000000000000000e+00  1.1250001532661063e+00 0.0000000000000000e+00 0.0000000000000000e+00  1.3740087595457637e+00 -2.4036996974898145e-01 0.0000000000000000e+00  1.1250001532661063e+00 0.0000000000000000e+00 0.0000000000000000e+00  0.0000000000000000e+00 0.0000000000000000e+00 0.0000000000000000e+00  2.3109011076517425e+00 1.8518202171164566e-01 0.0000000000000000e+00  1.1086774423403452e+00 8.4688188591208410e-04 0.0000000000000000e+00  4.2252474460037776e-01 -2.0637532841929265e-01 0.0000000000000000e+00  0.0000000000000000e+00 0.0000000000000000e+00 0.0000000000000000e+00  1.1281476307760392e+00 -2.2256512882479762e-03 0.0000000000000000e+00  1.1131200860992456e+00 -6.5309615819493197e-02 0.0000000000000000e+00  1.8418627783904657e+00 4.0506916641704255e-01 0.0000000000000000e+00  1.1217017461727261e+00 1.6505282202316818e-04 0.0000000000000000e+00  1.1143535491791128e+00 5.4567749100199107e-04 0.0000000000000000e+00  1.1174994072789874e+00 1.7065858715285167e-03 0.0000000000000000e+00  1.1181972189537306e+00 1.3215546426207112e-03 0.0000000000000000e+00  1.1133556582808743e+00 -9.6907452948909040e-02 0.0000000000000000e+00  1.1147294959394283e+00 -1.3738312937594680e-03 0.0000000000000000e+00  1.1239034598429676e+00 -1.2407706579896328e-03 0.0000000000000000e+00  1.0797276700506906e+00 -2.2365231902075535e-02 0.0000000000000000e+00  1.1205961855152051e+00 -1.3907597917601797e-02 0.0000000000000000e+00  1.7809075221723050e+00 1.8376879311723979e-01 0.0000000000000000e+00  1.0999260552791301e+00 -3.5432340008642606e-03 0.0000000000000000e+00  0.0000000000000000e+00 0.0000000000000000e+00 0.0000000000000000e+00  6.1009602284629882e-01 -2.0424558519337468e-01 0.0000000000000000e+00  0.0000000000000000e+00 0.0000000000000000e+00 0.0000000000000000e+00  0.0000000000000000e+00 0.0000000000000000e+00 0.0000000000000000e+00  0.0000000000000000e+00 0.0000000000000000e+00 0.0000000000000000e+00  0.0000000000000000e+00 0.0000000000000000e+00 0.0000000000000000e+00  0.0000000000000000e+00 0.0000000000000000e+00 0.0000000000000000e+00  0.0000000000000000e+00 0.0000000000000000e+00 0.0000000000000000e+00  0.0000000000000000e+00 0.0000000000000000e+00 0.0000000000000000e+00  0.0000000000000000e+00 0.0000000000000000e+00 0.0000000000000000e+00  1.1074662134657580e+00 -3.5487723750760096e-04 0.0000000000000000e+00  0.0000000000000000e+00 0.0000000000000000e+00 0.0000000000000000e+00  0.0000000000000000e+00 0.0000000000000000e+00 0.0000000000000000e+00  0.0000000000000000e+00 0.0000000000000000e+00 0.0000000000000000e+00  0.0000000000000000e+00 0.0000000000000000e+00 0.0000000000000000e+00  0.0000000000000000e+00 0.0000000000000000e+00 0.0000000000000000e+00  0.0000000000000000e+00 0.0000000000000000e+00 0.0000000000000000e+00  0.0000000000000000e+00 0.0000000000000000e+00 0.0000000000000000e+00  0.0000000000000000e+00 0.0000000000000000e+00 0.0000000000000000e+00  0.0000000000000000e+00 0.0000000000000000e+00 0.0000000000000000e+00  0.0000000000000000e+00 0.0000000000000000e+00 0.0000000000000000e+00  0.0000000000000000e+00 0.0000000000000000e+00 0.0000000000000000e+00  0.0000000000000000e+00 0.0000000000000000e+00 0.0000000000000000e+00  0.0000000000000000e+00 0.0000000000000000e+00 0.0000000000000000e+00  0.0000000000000000e+00 0.0000000000000000e+00 0.0000000000000000e+00  0.0000000000000000e+00 0.0000000000000000e+00 0.0000000000000000e+00  0.0000000000000000e+00 0.0000000000000000e+00 0.0000000000000000e+00  0.0000000000000000e+00 0.0000000000000000e+00 0.0000000000000000e+00  0.0000000000000000e+00 0.0000000000000000e+00 0.0000000000000000e+00  1.1647937969822193e+00 -2.6172116461645359e-03 0.0000000000000000e+00  1.1182220639396256e+00 3.5687264759321868e-03 0.0000000000000000e+00  9.4251060023748712e-01 -8.8149161918012933e-02 0.0000000000000000e+00  1.1198575557777322e+00 -1.4166055429906319e-03 0.0000000000000000e+00  1.1070833902535300e+00 -5.1663111833081003e-04 0.0000000000000000e+00  1.0163528557980417e+00 1.0898536520730528e+00 0.0000000000000000e+00  1.1407233106494097e+00 -2.8588959222965889e-02 0.0000000000000000e+00  8.8663588085871292e-01 6.0055536673914384e-04 0.0000000000000000e+00  1.3700521203444040e+00 -2.1849715194553346e-01 0.0000000000000000e+00  1.3930969768675647e+00 -3.2415474755939186e-02 0.0000000000000000e+00  1.1149675808811503e+00 -1.8191602888508131e-03 0.0000000000000000e+00  1.1420626782930312e+00 -1.7775695972107751e-03 0.0000000000000000e+00  1.1734634763097389e+00 -8.0040692310587823e-03 0.0000000000000000e+00  1.3998238925598234e+00 1.6857735295884274e-02 0.0000000000000000e+00  1.1283718255193247e+00 7.7637702662851195e-03 0.0000000000000000e+00  1.5323329105123895e+00 -3.5357323087985065e-01 0.0000000000000000e+00  1.4054533509451153e+00 -4.1844491583045283e-02 0.0000000000000000e+00  2.0902787936955649e+00 -1.0219771836457903e-01 0.0000000000000000e+00  1.3860692303168769e+00 1.5650184511987867e-04 0.0000000000000000e+00  1.3550457948667656e+00 2.0613315257337044e-03 0.0000000000000000e+00  1.1360664701129051e+00 -4.5566211802257846e-02 0.0000000000000000e+00  2.2469628076431389e-01 4.3560773823041138e-01 0.0000000000000000e+00  2.1324509896619821e+00 -5.1654259794224755e-01 0.0000000000000000e+00  3.9004024327570691e-01 -2.3710676919115457e-02 0.0000000000000000e+00  1.1206026899589050e+00 -2.8423076566335866e-03 0.0000000000000000e+00  1.7081362118382770e+00 3.5004314095817191e-01 0.0000000000000000e+00  1.3140158390304997e+00 8.9067943335951927e-01 0.0000000000000000e+00  8.4728308229648841e-01 -1.2574231221503347e-02 0.0000000000000000e+00  9.2223555693009684e-01 -3.4570360477471592e-03 0.0000000000000000e+00  1.0299361827668454e+00 -5.6374046449341538e-05 0.0000000000000000e+00  7.8839856620511228e-01 -1.0566476229166366e-02 0.0000000000000000e+00  1.1088621815917130e+00 -6.6857471089309733e-03 0.0000000000000000e+00  1.3937921616009969e+00 3.6560024853197703e-01 0.0000000000000000e+00  1.4814315030977120e-02 9.4185641913864449e-01 0.0000000000000000e+00  1.1205161084690602e+00 7.2593981071041791e-03 0.0000000000000000e+00  1.0547110632078129e+00 -3.3124788440165834e-03 0.0000000000000000e+00  1.0627855856254218e+00 3.8388114424117009e-01 0.0000000000000000e+00  1.1277318305517425e+00 -7.7690253383972310e-03 0.0000000000000000e+00  1.1129440953607845e+00 4.1191752240027119e-04 0.0000000000000000e+00  1.6012493293382619e+00 6.7534315364961420e-02 0.0000000000000000e+00  4.0737405435558849e-01 5.3235607322266176e-01 0.0000000000000000e+00  1.1071289725145987e+00 1.7540165700838303e-01 0.0000000000000000e+00  1.0931710320781809e+00 -1.4299446002344821e-01 0.0000000000000000e+00  1.1308225961341631e+00 -1.2485599737100219e-02 0.0000000000000000e+00  1.0777340680803547e+00 -4.5652190810263919e-03 0.0000000000000000e+00  1.0557766839163039e+00 1.0924357256211431e-03 0.0000000000000000e+00  1.4669263649043589e+00 -1.3493222856921736e-01 0.0000000000000000e+00  -1.7501526890040961e-01 5.6745108015998193e-03 0.0000000000000000e+00  1.0792213518606395e+00 2.2272927496499325e-03 0.0000000000000000e+00  6.5625008940522866e-01 0.0000000000000000e+00 0.0000000000000000e+00  8.6876225504268700e-01 -4.0815216153122592e-02 0.0000000000000000e+00  1.0510988138612070e+00 7.5068717865144058e-05 0.0000000000000000e+00  5.1341670121139682e-01 2.8836462566367904e-02 0.0000000000000000e+00  1.0611323524075367e+00 9.8939666336387839e-04 0.0000000000000000e+00  1.0902306765158492e+00 1.0260465863766617e-03 0.0000000000000000e+00  1.1085614562276402e+00 -3.6400440198591281e-03 0.0000000000000000e+00  1.1017078178021156e+00 -1.1451851784796819e-03 0.0000000000000000e+00  1.1939031582867667e+00 -1.5864221784079607e-01 0.0000000000000000e+00  1.1142147590721405e+00 8.2012240168959170e-04 0.0000000000000000e+00  1.4614481870122529e+00 -4.9685559664390722e-01 0.0000000000000000e+00  1.0170978900604254e-01 -8.2497924073198677e-03 0.0000000000000000e+00  1.0650368913540980e+00 -2.2748468353427370e-05 0.0000000000000000e+00  5.2379656197713498e-01 3.5247460187301816e-01 0.0000000000000000e+00  1.5573607736677992e+00 -8.0188780198938114e-01 0.0000000000000000e+00  9.7263547205567724e-01 -8.1663328779674846e-02 0.0000000000000000e+00  3.4399669218628498e-01 -4.1414960474652163e-01 0.0000000000000000e+00  2.2134905124477107e+00 -1.3186861726954806e+00 0.0000000000000000e+00  1.0795704743527459e+00 -1.3671142447555312e-03 0.0000000000000000e+00  1.1687053538330374e+00 -3.3875323691071484e-02 0.0000000000000000e+00  2.0871938110331731e+00 -1.8620842074171912e-01 0.0000000000000000e+00  -1.1317648588677705e+00 5.8200640335944374e-02 0.0000000000000000e+00  1.1121976853552227e+00 -5.0223878146422396e-05 0.0000000000000000e+00  1.4609156263839551e+00 -9.6072900669625400e-02 0.0000000000000000e+00  1.1154149597558063e+00 9.6801833505676766e-04 0.0000000000000000e+00  1.1190932881238433e+00 1.1265909604195312e-03 0.0000000000000000e+00  1.0801055969882773e+00 -4.9298369607492017e-02 0.0000000000000000e+00  1.0521052389433256e+00 2.4940188698731268e-03 0.0000000000000000e+00  1.1251180361994304e+00 -3.5080144508935077e-03 0.0000000000000000e+00  1.0225210814475247e+00 -1.1906076065207581e-01 0.0000000000000000e+00  1.1205529685360369e+00 -4.5610447949629405e-04 0.0000000000000000e+00  1.1190006519648485e+00 -4.4745823499362620e-04 0.0000000000000000e+00  1.1229481014180391e+00 -6.9097979098084255e-04 0.0000000000000000e+00  1.0660930689516963e+00 1.5760957382466158e-03 0.0000000000000000e+00  1.1220879391455230e+00 8.9516050571949697e-04 0.0000000000000000e+00  9.3985411380527961e-01 -1.6343850513525315e-01 0.0000000000000000e+00  1.7455403167316130e+00 1.7806404607832624e-01 0.0000000000000000e+00  1.0411927035220963e+00 1.9416516636194439e-03 0.0000000000000000e+00  1.0327384241699809e+00 -3.3039864386425932e-03 0.0000000000000000e+00  6.7307121539998316e-01 1.7706309651544280e-01 0.0000000000000000e+00  2.0550257015193756e+00 7.2310479299576536e-01 0.0000000000000000e+00  1.0946296682557493e+00 -2.8014598158139392e-01 0.0000000000000000e+00  1.1019033572071188e+00 -1.9485617930190571e-02 0.0000000000000000e+00  1.0274892787125269e+00 -4.7308630446966145e-03 0.0000000000000000e+00  1.1219214679709992e+00 6.9226752465471596e-06 0.0000000000000000e+00  9.4839668959007950e-01 -2.3579474840304124e-02 0.0000000000000000e+00  1.0471105111235803e+00 2.6776419262289630e-03 0.0000000000000000e+00  1.0153830664347063e+00 -1.5692814178576195e-02 0.0000000000000000e+00  3.0072627246323619e-01 -1.2282316507622548e-02 0.0000000000000000e+00  5.5921573439739680e-01 -1.2613574391652943e-01 0.0000000000000000e+00  1.2639665201488379e+00 -2.2078206765805429e-02 0.0000000000000000e+00  1.0355843941424079e+00 -2.1109581804362666e-03 0.0000000000000000e+00  1.2620757040257535e+00 -4.7723202918794261e-01 0.0000000000000000e+00  9.9663120718828713e-01 -8.4126343323041950e-03 0.0000000000000000e+00  1.0818915034526559e+00 1.0476081297477773e-02 0.0000000000000000e+00  1.1136736140011041e+00 -3.600172328073482