<?xml version="1.0"?>
<VTKFile type="UnstructuredGrid"  version="0.1"  >
<UnstructuredGrid>
<Piece  NumberOfPoints="4269" NumberOfCells="8234">
<Points>
<DataArray  type="Float64"  NumberOfComponents="3"  format="ascii">0 1 0  0 0 0  7.5 0 0  7.5 1 0  1.197537668119028 0.5812868930080463 0  1.2 0.55 0  1.197537668119028 0.5187131069919538 0  1.190211303259031 0.4881966011250105 0  1.178201304837674 0.4592019000520907 0  1.161803398874989 0.4324429495415054 0  1.141421356237309 0.4085786437626905 0  1.117557050458495 0.3881966011250105 0  1.090798099947909 0.3717986951623264 0  1.06180339887499 0.3597886967409693 0  1.031286893008046 0.3524623318809725 0  1 0.35 0  0.9687131069919538 0.3524623318809725 0  0.9381966011250105 0.3597886967409694 0  0.9092019000520906 0.3717986951623264 0  0.8824429495415054 0.3881966011250105 0  0.8585786437626904 0.4085786437626905 0  0.8381966011250105 0.4324429495415054 0  0.8217986951623264 0.4592019000520907 0  0.8097886967409692 0.4881966011250107 0  0.8024623318809725 0.5187131069919539 0  0.8 0.55 0  0.8024623318809725 0.5812868930080463 0  0.8097886967409693 0.6118033988749896 0  0.8217986951623264 0.6407980999479095 0  0.8381966011250105 0.6675570504584947 0  0.8585786437626906 0.6914213562373096 0  0.8824429495415054 0.7118033988749896 0  0.9092019000520907 0.7282013048376736 0  0.9381966011250106 0.7402113032590307 0  0.9687131069919539 0.7475376681190276 0  1 0.75 0  1.031286893008046 0.7475376681190276 0  1.06180339887499 0.7402113032590307 0  1.090798099947909 0.7282013048376736 0  1.117557050458495 0.7118033988749896 0  1.141421356237309 0.6914213562373095 0  1.161803398874989 0.6675570504584947 0  1.178201304837674 0.6407980999479094 0  1.190211303259031 0.6118033988749896 0  3.75 0 0  3.75 1 0  1.875 0 0  1.875 1 0  0.9375 0 0  0.9375 1 0  1.40625 1 0  5.625 1 0  5.625 0 0  2.8125 1 0  2.8125 0 0  4.6875 0 0  4.6875 1 0  6.5625 0 0  6.5625 1 0  5.15625 0.5 0  4.21875 0.5 0  2.34375 0.5 0  3.28125 0.5 0  6.09375 0.5 0  7.5 0.5 0  6.897916666666666 0.5 0  1.842708333333333 0.5 0  0 0.5 0  0.46875 0 0  5.625 0.5302734375 0  7.03125 0 0  6.09375 1 0  2.8125 0.4697265625 0  3.28125 0 0  2.34375 1 0  2.34375 0 0  3.75 0.4697265625 0  4.21875 0 0  4.21875 1 0  4.6875 0.5302734375 0  3.28125 1 0  5.15625 0 0  6.09375 0 0  5.15625 1 0  0.46875 1 0  1.40625 0 0  7.03125 1 0  0.3954638734376499 0.5975780249976004 0  6.495833333333334 0.4072265624999998 0  5.859375 0.25 0  4.905729166666666 0.26513671875 0  4.453125 0.25 0  3.531770833333333 0.73486328125 0  3.968229166666667 0.73486328125 0  2.594270833333333 0.73486328125 0  3.030729166666667 0.73486328125 0  6.328125 0.75 0  7.198958333333334 0.3125000000000002 0  7.198958333333334 0.6874999999999998 0  5.390625 0.25 0  0 0.25 0  2.109375 0.75 0  2.109375 0.25 0  1.51921323205749 0.3418883887525936 0  1.522346610178253 0.6811769608297746 0  5.375456746419271 0.75 0  4.921875 0.76513671875 0  4.437956746419271 0.75 0  3.984375 0.23486328125 0  3.500456746419271 0.25 0  2.578125 0.23486328125 0  3.046875 0.23486328125 0  5.874543253580729 0.75 0  6.642123189445656 0.6909095493086836 0  6.746354166666666 0.2391688368055553 0  0.3197109619185111 0.2850049285972083 0  6.328125 0 0  0.6313375889370429 0.2351325552547357 0  0 0.75 0  6.252283381534729 0.2693808819694041 0  0.234375 1 0  6.948437500000001 0.7543055555555555 0  0.5934018769555939 0.7694151657947577 0  1.858854166666667 0.75 0  1.858854166666667 0.25 0  1.640625 0 0  2.093229166666667 0.5 0  7.5 0.25 0  3.282227579752604 0.75 0  7.5 0.75 0  1.171875 0 0  1.303539853147731 0.2235426933121065 0  5.148177083333333 0.2575683593749998 0  2.351822916666667 0.742431640625 0  1.640625 1 0  4.202380413457425 0.7645435094236485 0  3.047822985053062 0.4701848030090332 0  2.577177014946938 0.4701848030090332 0  4.672792740482199 0.76513671875 0  4.922822985053062 0.5298151969909668 0  5.390593497949761 0.5156244924311331 0  5.610292740482199 0.76513671875 0  3.516602579752604 0.5 0  4.45496853898097 0.4865915990446593 0  5.85753146101903 0.4865915990446593 0  3.749511210123698 0.23486328125 0  3.983397420247396 0.4999999999999999 0  2.343497975411212 0.2346270081980111 0  4.219002024588788 0.2346270081980111 0  0.703125 0 0  2.8125 0.2343755075688669 0  3.046875 0 0  2.578125 0 0  3.515625 0 0  3.984375 0 0  4.453125 1 0  5.390625 1 0  2.109375 0 0  2.109375 1 0  5.625 0.2921402030705575 0  5.390625 0 0  7.265625 0 0  6.796875 0 0  6.328125 1 0  3.046875 1 0  2.578125 1 0  3.984375 1 0  3.515625 1 0  4.453125 0 0  4.921875 0 0  5.859375 0 0  0.703125 1 0  1.171875 1 0  7.265625 1 0  4.921875 1 0  5.859375 1 0  0.234375 0 0  6.796875 1 0  6.980310975276531 0.2285890127127066 0  5.149170481934885 0.772689292163473 0  3.274170481934884 0.2273107078365268 0  6.101334126790364 0.7722468376159667 0  4.678005340872584 0.3000799877067239 0  2.8125 0.6921051326382495 0  3.75 0.6921051326382495 0  0.3515624999999999 0.8134571721668546 0  0.4990405774417521 0.4070099317153735 0  0.1789273931360182 0.625 0  6.31239060814315 0.5298877111157968 0  6.456979773992304 0.1917956348713352 0  6.699870808919271 0.4406293402777773 0  1.337539480965883 0.7944303676599538 0  6.058675797563041 0.2019812164653516 0  0.8203125 0.1643029084422534 0  0.1480856513011711 0.375 0  1.090769294689562 0.1719186776982972 0  7.291088163206459 0.5 0  7.094502414936563 0.5197902199074071 0  0.6046212059042245 0.5730066483871106 0  1.707231580809486 0.6342709161352207 0  1.685961352504593 0.8193269193390785 0  1.374721602852827 0.4600373025865813 0  6.486415510043844 0.5916440776477192 0  1.5234375 0.1508863828685116 0  1.707925830421689 0.3657739208189008 0  0.1674513225045584 0.8278776664019765 0  7.138268756771176 0.1438183366439137 0  7.1484375 0.8616388888888887 0  7.328562530764119 0.819498462930605 0  4.101073710123698 0.3678637200736647 0  1.693878467219965 0.1911955120941053 0  1.577566745468488 0.5110082404081502 0  6.6796875 0.8653871806883484 0  6.498039504430512 0.825568433346395 0  0.7562556668576472 0.8333197949571929 0  4.101045914668806 0.6255195807449272 0  5.030745188395182 0.382829047309028 0  2.476364945868651 0.6095868094762166 0  2.729359843907322 0.8460525663191247 0  2.9296875 0.8740763101564099 0  3.163518307559356 0.6254622797994247 0  3.666859843907322 0.8460525663191247 0  3.8671875 0.8740763101564099 0  4.8046875 0.12592368984359 0  3.14936031382311 0.8606990583876851 0  2.4609375 0.8747622921397776 0  5.023140791101972 0.1392266772452574 0  0 0.125 0  0.1759922923594607 0.1727589856739889 0  4.5703125 0.125 0  7.327755777818006 0.1766156770456191 0  5.5078125 0.125 0  5.719712725029036 0.1460701015352787 0  4.327848962028002 0.3674169956512513 0  5.982681121544351 0.3692637923021713 0  3.398926289876302 0.6245417594909667 0  5.281756792511996 0.3827993367299961 0  2.226822645963271 0.6252438868405666 0  2.234390064317166 0.8676616584526566 0  5.2734375 0.125 0  1.96796875 0.382568359375 0  2.234651037971999 0.3674169956512511 0  1.984114583333333 0.132568359375 0  1.9921875 0.875 0  1.984114583333333 0.632568359375 0  5.748733794462357 0.8678269127183313 0  3.3984375 0.875456329184688 0  1.512925924995415 0.8582958012121853 0  1.359299372802969 0.6275861864990343 0  4.810521420483513 0.4041767793635395 0  0.2996213306116602 0.455339710363317 0  5.999933717403708 0.6388425470751088 0  5.250033449003657 0.6388713364551682 0  3.631676045992918 0.3525406652400928 0  4.3359375 0.8816499670325881 0  4.343577437052484 0.6116511299909198 0  3.375033449003656 0.3611286635448316 0  5.763152151652243 0.6249404690537395 0  4.549347848347757 0.6249404690537396 0  5.5004588702411 0.6403667365776566 0  5.976118394847484 0.8816230218343086 0  5.054722486865804 0.6338007028640954 0  3.164542163493752 0.3520519332736524 0  2.445407482032355 0.3672168403687257 0  4.8046875 0.882568359375 0  4.1015625 0.117431640625 0  2.4609375 0.117431640625 0  2.695556894938151 0.3520510350344335 0  2.929443105061849 0.3520510350344335 0  3.881979231817319 0.3670559016511187 0  3.8671875 0.117431640625 0  4.805389247695744 0.6470047893641744 0  3.399370721942191 0.1184066543556767 0  5.274370721942192 0.881593345644323 0  3.618253274934649 0.1316869186284249 0  2.6953125 0.1171877537844335 0  2.9296875 0.1171877537844335 0  2.21873344389451 0.125 0  4.3359375 0.1171877625080073 0  0.6659898565672709 0.3986593551313873 0  7.363359022954956 0.3481046411219251 0  7.363359022954956 0.6518953588780749 0  5.487719392831826 0.3828237631077121 0  2.695054578344725 0.5809158475691247 0  2.944553877887707 0.5964065668438148 0  0.3515625 0.1201898858097106 0  5.5078125 1 0  4.5703125 1 0  5.031746201297604 0.882568359375 0  3.1640625 0 0  6.2109375 1 0  6.186845385763124 0.6336356480571081 0  4.1015625 1 0  6.810399074069772 0.6495574751396682 0  0.4740615253480797 0.2509287743856873 0  7.052064303830151 0.3684417917792242 0  6.195177069665382 0.1216488332168849 0  5.72300154718324 0.4112068202852788 0  3.879157465495092 0.6111892850691246 0  3.645760045247695 0.5809158475691247 0  6.868257400485771 0.3427840810237202 0  6.612030892260864 0.1521752713064389 0  6.615666885941117 0.3151079644097221 0  4.04296875 0.8633718902669071 0  1.183031453639096 0.8486801864185936 0  6.9140625 0 0  6.859079526500421 0.1398292786950638 0  6.808232443325651 0.7957411753922057 0  6.9140625 1 0  4.544955211100143 0.3675874343205077 0  1.0546875 1 0  6.122060236165557 0.3316791557072867 0  0.5859375 0 0  5.9765625 0 0  5.44921875 0.870984788733638 0  4.51171875 0.870984788733638 0  0.7608354256382215 0.2931261274224557 0  6.386875332239937 0.3156583003094978 0  6.985654756850997 0.6147408423643147 0  6.223797257919172 0.8535621912121121 0  5.936822413218736 0.1338376546337823 0  6.23933008800134 0.4095573603773768 0  0.5414022462152697 0.1305482677949959 0  6.331360438104348 0.1370086318183389 0  0.956404929269873 0.1374266563647954 0  1.2890625 1 0  0.691305981127761 0.6764829884281737 0  3.531251607241209 0.8678916320952239 0  2.59787442813022 
[...]
<PointData  Vectors="f_71627"> 
<DataArray  type="Float64"  Name="f_71627"  NumberOfComponents="3" format="ascii">0.0000000000000000e+00 0.0000000000000000e+00 0.0000000000000000e+00  0.0000000000000000e+00 0.0000000000000000e+00 0.0000000000000000e+00  0.0000000000000000e+00 0.0000000000000000e+00 0.0000000000000000e+00  0.0000000000000000e+00 0.0000000000000000e+00 0.0000000000000000e+00  0.0000000000000000e+00 0.0000000000000000e+00 0.0000000000000000e+00  0.0000000000000000e+00 0.0000000000000000e+00 0.0000000000000000e+00  0.0000000000000000e+00 0.0000000000000000e+00 0.0000000000000000e+00  0.0000000000000000e+00 0.0000000000000000e+00 0.0000000000000000e+00  0.0000000000000000e+00 0.0000000000000000e+00 0.0000000000000000e+00  0.0000000000000000e+00 0.0000000000000000e+00 0.0000000000000000e+00  0.0000000000000000e+00 0.0000000000000000e+00 0.0000000000000000e+00  0.0000000000000000e+00 0.0000000000000000e+00 0.0000000000000000e+00  0.0000000000000000e+00 0.0000000000000000e+00 0.0000000000000000e+00  0.0000000000000000e+00 0.0000000000000000e+00 0.0000000000000000e+00  0.0000000000000000e+00 0.0000000000000000e+00 0.0000000000000000e+00  0.0000000000000000e+00 0.0000000000000000e+00 0.0000000000000000e+00  0.0000000000000000e+00 0.0000000000000000e+00 0.0000000000000000e+00  0.0000000000000000e+00 0.0000000000000000e+00 0.0000000000000000e+00  0.0000000000000000e+00 0.0000000000000000e+00 0.0000000000000000e+00  0.0000000000000000e+00 0.0000000000000000e+00 0.0000000000000000e+00  0.0000000000000000e+00 0.0000000000000000e+00 0.0000000000000000e+00  0.0000000000000000e+00 0.0000000000000000e+00 0.0000000000000000e+00  0.0000000000000000e+00 0.0000000000000000e+00 0.0000000000000000e+00  0.0000000000000000e+00 0.0000000000000000e+00 0.0000000000000000e+00  0.0000000000000000e+00 0.0000000000000000e+00 0.0000000000000000e+00  0.0000000000000000e+00 0.0000000000000000e+00 0.0000000000000000e+00  0.0000000000000000e+00 0.0000000000000000e+00 0.0000000000000000e+00  0.0000000000000000e+00 0.0000000000000000e+00 0.0000000000000000e+00  0.0000000000000000e+00 0.0000000000000000e+00 0.0000000000000000e+00  0.0000000000000000e+00 0.0000000000000000e+00 0.0000000000000000e+00  0.0000000000000000e+00 0.0000000000000000e+00 0.0000000000000000e+00  0.0000000000000000e+00 0.0000000000000000e+00 0.0000000000000000e+00  0.0000000000000000e+00 0.0000000000000000e+00 0.0000000000000000e+00  0.0000000000000000e+00 0.0000000000000000e+00 0.0000000000000000e+00  0.0000000000000000e+00 0.0000000000000000e+00 0.0000000000000000e+00  0.0000000000000000e+00 0.0000000000000000e+00 0.0000000000000000e+00  0.0000000000000000e+00 0.0000000000000000e+00 0.0000000000000000e+00  0.0000000000000000e+00 0.0000000000000000e+00 0.0000000000000000e+00  0.0000000000000000e+00 0.0000000000000000e+00 0.0000000000000000e+00  0.0000000000000000e+00 0.0000000000000000e+00 0.0000000000000000e+00  0.0000000000000000e+00 0.0000000000000000e+00 0.0000000000000000e+00  0.0000000000000000e+00 0.0000000000000000e+00 0.0000000000000000e+00  0.0000000000000000e+00 0.0000000000000000e+00 0.0000000000000000e+00  0.0000000000000000e+00 0.0000000000000000e+00 0.0000000000000000e+00  0.0000000000000000e+00 0.0000000000000000e+00 0.0000000000000000e+00  0.0000000000000000e+00 0.0000000000000000e+00 0.0000000000000000e+00  0.0000000000000000e+00 0.0000000000000000e+00 0.0000000000000000e+00  0.0000000000000000e+00 0.0000000000000000e+00 0.0000000000000000e+00  0.0000000000000000e+00 0.0000000000000000e+00 0.0000000000000000e+00  0.0000000000000000e+00 0.0000000000000000e+00 0.0000000000000000e+00  0.0000000000000000e+00 0.0000000000000000e+00 0.0000000000000000e+00  0.0000000000000000e+00 0.0000000000000000e+00 0.0000000000000000e+00  0.0000000000000000e+00 0.0000000000000000e+00 0.0000000000000000e+00  0.0000000000000000e+00 0.0000000000000000e+00 0.0000000000000000e+00  0.0000000000000000e+00 0.0000000000000000e+00 0.0000000000000000e+00  0.0000000000000000e+00 0.0000000000000000e+00 0.0000000000000000e+00  0.0000000000000000e+00 0.0000000000000000e+00 0.0000000000000000e+00  0.0000000000000000e+00 0.0000000000000000e+00 0.0000000000000000e+00  0.0000000000000000e+00 0.0000000000000000e+00 0.0000000000000000e+00  1.0837047593258093e+00 -2.7948481939886610e-03 0.0000000000000000e+00  1.0831554157204266e+00 9.5911968973763151e-04 0.0000000000000000e+00  1.0934154807085716e+00 2.6310715782112986e-04 0.0000000000000000e+00  1.0799278427543471e+00 -1.4377279763239058e-03 0.0000000000000000e+00  1.0727969596261175e+00 2.4805210798186083e-04 0.0000000000000000e+00  1.5000002039422062e+00 0.0000000000000000e+00 0.0000000000000000e+00  1.1631629626453557e+00 -7.8204168413734659e-03 0.0000000000000000e+00  7.8794877419324039e-01 1.9555423262399349e-01 0.0000000000000000e+00  1.5000002039422062e+00 0.0000000000000000e+00 0.0000000000000000e+00  0.0000000000000000e+00 0.0000000000000000e+00 0.0000000000000000e+00  1.0762471059147622e+00 -1.0183975873551102e-03 0.0000000000000000e+00  0.0000000000000000e+00 0.0000000000000000e+00 0.0000000000000000e+00  0.0000000000000000e+00 0.0000000000000000e+00 0.0000000000000000e+00  1.0827418283673533e+00 -1.6795489366742738e-04 0.0000000000000000e+00  0.0000000000000000e+00 0.0000000000000000e+00 0.0000000000000000e+00  0.0000000000000000e+00 0.0000000000000000e+00 0.0000000000000000e+00  0.0000000000000000e+00 0.0000000000000000e+00 0.0000000000000000e+00  1.0789800078670713e+00 5.6222730449933189e-04 0.0000000000000000e+00  0.0000000000000000e+00 0.0000000000000000e+00 0.0000000000000000e+00  0.0000000000000000e+00 0.0000000000000000e+00 0.0000000000000000e+00  1.0811388544579730e+00 -6.5186010738714462e-04 0.0000000000000000e+00  0.0000000000000000e+00 0.0000000000000000e+00 0.0000000000000000e+00  0.0000000000000000e+00 0.0000000000000000e+00 0.0000000000000000e+00  0.0000000000000000e+00 0.0000000000000000e+00 0.0000000000000000e+00  0.0000000000000000e+00 0.0000000000000000e+00 0.0000000000000000e+00  0.0000000000000000e+00 0.0000000000000000e+00 0.0000000000000000e+00  0.0000000000000000e+00 0.0000000000000000e+00 0.0000000000000000e+00  0.0000000000000000e+00 0.0000000000000000e+00 0.0000000000000000e+00  1.3640724184738968e+00 -2.9128855635997868e-02 0.0000000000000000e+00  1.1191447034961721e+00 -5.9923058770620383e-03 0.0000000000000000e+00  1.0884994360823743e+00 3.2180427733645898e-03 0.0000000000000000e+00  1.0696321558118480e+00 7.9131252784466009e-03 0.0000000000000000e+00  1.0673627361979161e+00 5.5672579358788240e-03 0.0000000000000000e+00  1.0745786936110815e+00 -2.3633258521507986e-03 0.0000000000000000e+00  1.0831606320143499e+00 9.7157137615195741e-04 0.0000000000000000e+00  1.0812235822737617e+00 2.8774032325612183e-03 0.0000000000000000e+00  1.0833259602877929e+00 -2.0877347407191253e-03 0.0000000000000000e+00  1.0901414674005263e+00 4.2471232973982581e-03 0.0000000000000000e+00  7.3906966753941084e-01 6.3873292375432461e-03 0.0000000000000000e+00  9.3350372288646633e-01 2.3637570412522110e-02 0.0000000000000000e+00  1.0776634883584326e+00 4.1590827370299602e-04 0.0000000000000000e+00  1.1250001529566545e+00 0.0000000000000000e+00 0.0000000000000000e+00  1.1752727812703705e+00 7.6551706689510349e-02 0.0000000000000000e+00  1.1290001734618145e+00 -2.9938688670082772e-02 0.0000000000000000e+00  1.9181960010156491e+00 7.5367255854333326e-01 0.0000000000000000e+00  6.2422698745380110e-02 -2.2411027511895248e-01 0.0000000000000000e+00  1.0805897040847072e+00 4.7436171798419151e-03 0.0000000000000000e+00  1.0853952685160335e+00 1.6879936631923078e-03 0.0000000000000000e+00  1.0862839729405798e+00 5.5192305289848568e-03 0.0000000000000000e+00  1.0786253872972253e+00 -2.0955712648615230e-03 0.0000000000000000e+00  1.0804817564648601e+00 -4.4611587975566542e-03 0.0000000000000000e+00  1.0800522711175247e+00 -2.3321164611875798e-03 0.0000000000000000e+00  1.0841880865733331e+00 3.2939283470103802e-04 0.0000000000000000e+00  1.0878089969845295e+00 2.2231480058423538e-03 0.0000000000000000e+00  1.0673677204205632e+00 -4.2533433278813086e-03 0.0000000000000000e+00  1.0950388220548377e+00 -7.6054538437063659e-03 0.0000000000000000e+00  1.2313656411104332e+00 -8.6180890687644646e-02 0.0000000000000000e+00  0.0000000000000000e+00 0.0000000000000000e+00 0.0000000000000000e+00  1.2546976117688915e+00 -3.1415562842334405e-01 0.0000000000000000e+00  1.1250001529566545e+00 0.0000000000000000e+00 0.0000000000000000e+00  1.1096076311189067e+00 3.5974188152409466e-03 0.0000000000000000e+00  0.0000000000000000e+00 0.0000000000000000e+00 0.0000000000000000e+00  1.2617506270584709e+00 -6.9812536421098130e-03 0.0000000000000000e+00  1.0410199077832210e+00 2.0366259433095446e-01 0.0000000000000000e+00  1.5989187526082200e+00 -2.6151784127626199e-01 0.0000000000000000e+00  1.3365080292804259e+00 1.5495414920336356e-01 0.0000000000000000e+00  0.0000000000000000e+00 0.0000000000000000e+00 0.0000000000000000e+00  1.0900508633417318e+00 -9.5970907779910474e-03 0.0000000000000000e+00  1.1250001529566545e+00 0.0000000000000000e+00 0.0000000000000000e+00  1.0741645751681359e+00 -9.7370095504800691e-04 0.0000000000000000e+00  1.1250001529566545e+00 0.0000000000000000e+00 0.0000000000000000e+00  0.0000000000000000e+00 0.0000000000000000e+00 0.0000000000000000e+00  2.3123831832154655e+00 5.4351637015525506e-02 0.0000000000000000e+00  1.0765077018824540e+00 5.3621658307237063e-03 0.0000000000000000e+00  1.0841970801278276e+00 1.5886383749243071e-02 0.0000000000000000e+00  0.0000000000000000e+00 0.0000000000000000e+00 0.0000000000000000e+00  1.0854862228665476e+00 4.1266948271964218e-03 0.0000000000000000e+00  1.0828997150392721e+00 -8.8395945926965206e-04 0.0000000000000000e+00  1.0842406249375534e+00 -9.9230030296517340e-05 0.0000000000000000e+00  1.0938012532402281e+00 7.5977599393092588e-03 0.0000000000000000e+00  1.0785535857979991e+00 -3.7793663765025849e-03 0.0000000000000000e+00  1.0772009439582941e+00 -8.1804524304470957e-04 0.0000000000000000e+00  1.0688126404806744e+00 1.6247037202606672e-03 0.0000000000000000e+00  1.0847479664600881e+00 1.1088201916172804e-03 0.0000000000000000e+00  1.0799714327359524e+00 1.9220214117742474e-03 0.0000000000000000e+00  1.0749610722178902e+00 -1.2639354803803326e-03 0.0000000000000000e+00  1.0792023452853370e+00 -5.3681725476929683e-03 0.0000000000000000e+00  1.0834798271799659e+00 5.8201714609924966e-04 0.0000000000000000e+00  1.0817485711458577e+00 -1.4535570434556305e-02 0.0000000000000000e+00  1.0749462466852586e+00 4.7055012019479548e-03 0.0000000000000000e+00  0.0000000000000000e+00 0.0000000000000000e+00 0.0000000000000000e+00  1.0814772219237356e+00 3.2972004075427483e-04 0.0000000000000000e+00  0.0000000000000000e+00 0.0000000000000000e+00 0.0000000000000000e+00  0.0000000000000000e+00 0.0000000000000000e+00 0.0000000000000000e+00  0.0000000000000000e+00 0.0000000000000000e+00 0.0000000000000000e+00  0.0000000000000000e+00 0.0000000000000000e+00 0.0000000000000000e+00  0.0000000000000000e+00 0.0000000000000000e+00 0.0000000000000000e+00  0.0000000000000000e+00 0.0000000000000000e+00 0.0000000000000000e+00  0.0000000000000000e+00 0.0000000000000000e+00 0.0000000000000000e+00  0.0000000000000000e+00 0.0000000000000000e+00 0.0000000000000000e+00  1.0637276328936314e+00 -2.8056369569073062e-03 0.0000000000000000e+00  0.0000000000000000e+00 0.0000000000000000e+00 0.0000000000000000e+00  0.0000000000000000e+00 0.0000000000000000e+00 0.0000000000000000e+00  0.0000000000000000e+00 0.0000000000000000e+00 0.0000000000000000e+00  0.0000000000000000e+00 0.0000000000000000e+00 0.0000000000000000e+00  0.0000000000000000e+00 0.0000000000000000e+00 0.0000000000000000e+00  0.0000000000000000e+00 0.0000000000000000e+00 0.0000000000000000e+00  0.0000000000000000e+00 0.0000000000000000e+00 0.0000000000000000e+00  0.0000000000000000e+00 0.0000000000000000e+00 0.0000000000000000e+00  0.0000000000000000e+00 0.0000000000000000e+00 0.0000000000000000e+00  0.0000000000000000e+00 0.0000000000000000e+00 0.0000000000000000e+00  0.0000000000000000e+00 0.0000000000000000e+00 0.0000000000000000e+00  0.0000000000000000e+00 0.0000000000000000e+00 0.0000000000000000e+00  0.0000000000000000e+00 0.0000000000000000e+00 0.0000000000000000e+00  0.0000000000000000e+00 0.0000000000000000e+00 0.0000000000000000e+00  0.0000000000000000e+00 0.0000000000000000e+00 0.0000000000000000e+00  0.0000000000000000e+00 0.0000000000000000e+00 0.0000000000000000e+00  0.0000000000000000e+00 0.0000000000000000e+00 0.0000000000000000e+00  0.0000000000000000e+00 0.0000000000000000e+00 0.0000000000000000e+00  1.1500887603431884e+00 5.3710050239818919e-03 0.0000000000000000e+00  1.0839284536627822e+00 2.4315345167478402e-03 0.0000000000000000e+00  1.0810725549147226e+00 -1.8793974809948257e-03 0.0000000000000000e+00  1.0782273320096614e+00 -1.2490042604561429e-02 0.0000000000000000e+00  1.0674606364477237e+00 3.0598154760424546e-03 0.0000000000000000e+00  1.0821053575303095e+00 -5.0969418761311926e-04 0.0000000000000000e+00  1.0826809229071392e+00 -2.5692511461256149e-03 0.0000000000000000e+00  9.0683749802014535e-01 2.2624923467476077e-02 0.0000000000000000e+00  1.3554844893674647e+00 -1.7697085025895609e-01 0.0000000000000000e+00  1.3936595172755273e+00 -1.4415744942438222e-02 0.0000000000000000e+00  1.0735941337517625e+00 -3.9071929012815055e-03 0.0000000000000000e+00  1.0817735266739086e+00 8.1476982067945963e-04 0.0000000000000000e+00  1.1545265287920845e+00 -5.1553027003435059e-03 0.0000000000000000e+00  1.8767109383436249e+00 -9.9518640064548136e-02 0.0000000000000000e+00  1.0806663507791883e+00 2.6799076682529756e-03 0.0000000000000000e+00  1.4623970951548579e+00 -3.5111602675603515e-01 0.0000000000000000e+00  1.4042802160963097e+00 -2.7617435220673229e-02 0.0000000000000000e+00  2.0301996802791429e+00 -1.5148982337482242e-01 0.0000000000000000e+00  1.4067044042176962e+00 -1.8383836830567955e-02 0.0000000000000000e+00  1.3569849631728239e+00 -4.7720200974029313e-03 0.0000000000000000e+00  1.1468028654555122e+00 5.3364419570815485e-03 0.0000000000000000e+00  2.9198532158417778e-01 1.9116247558488311e-02 0.0000000000000000e+00  1.7329243680327500e+00 -4.3235317514375954e-01 0.0000000000000000e+00  -5.2626320163870484e-02 -2.9800216292439641e-01 0.0000000000000000e+00  1.0880635323284438e+00 -3.0286998041858305e-03 0.0000000000000000e+00  1.8434753839714351e+00 3.2985614107336403e-01 0.0000000000000000e+00  1.3428727660843471e+00 8.2149118133295984e-01 0.0000000000000000e+00  8.5272592591691343e-01 -4.8289190553640806e-04 0.0000000000000000e+00  9.2529786857838703e-01 -1.1825765833049676e-02 0.0000000000000000e+00  1.0126330592338955e+00 -5.1848801672397526e-03 0.0000000000000000e+00  7.0932097519347803e-01 -3.1995394414232578e-04 0.0000000000000000e+00  1.0801679032578733e+00 5.6846158868861742e-04 0.0000000000000000e+00  1.5888452852624972e+00 3.5036037181768320e-01 0.0000000000000000e+00  -2.7310572168448033e-01 6.9953947082026180e-01 0.0000000000000000e+00  1.1136088222709184e+00 4.2449806859467870e-03 0.0000000000000000e+00  1.0060231756261349e+00 -5.0095619667192264e-03 0.0000000000000000e+00  1.1378026568772803e+00 4.0771754393697140e-01 0.0000000000000000e+00  1.0874220226491769e+00 4.4651292223336767e-04 0.0000000000000000e+00  1.0795150650165175e+00 -4.7332405920070701e-04 0.0000000000000000e+00  1.0855759575451214e+00 4.4915047522621279e-03 0.0000000000000000e+00  1.0673010310394053e+00 -8.8588377701701471e-04 0.0000000000000000e+00  1.0674380632594511e+00 -2.8396362820314151e-03 0.0000000000000000e+00  1.0834481080563898e+00 -1.4483424208294514e-03 0.0000000000000000e+00  1.0288776390723977e+00 1.4214323835258246e-03 0.0000000000000000e+00  1.0787826700763465e+00 -5.1861816156466740e-03 0.0000000000000000e+00  1.0862936736330606e+00 1.0792537168566048e-02 0.0000000000000000e+00  1.0794684946770676e+00 -2.8845008414545644e-03 0.0000000000000000e+00  1.0686467393924655e+00 -1.4395361618643216e-03 0.0000000000000000e+00  1.0496924713917337e+00 -2.4909168170357014e-03 0.0000000000000000e+00  6.5625008922471506e-01 0.0000000000000000e+00 0.0000000000000000e+00  8.6418475781154258e-01 -2.8819311210256510e-02 0.0000000000000000e+00  1.0732552285199330e+00 1.0881345414837920e-03 0.0000000000000000e+00  3.6965789742525329e-01 9.4415866562815899e-03 0.0000000000000000e+00  1.0771189449910747e+00 -6.9146384379562909e-03 0.0000000000000000e+00  1.0565813522022698e+00 -1.9763009373464663e-03 0.0000000000000000e+00  1.0764734975137635e+00 1.6628872683739233e-04 0.0000000000000000e+00  1.0652419386985623e+00 -3.0130298646947129e-03 0.0000000000000000e+00  1.0846726733001886e+00 -1.1338672638611989e-03 0.0000000000000000e+00  1.0793903815115813e+00 6.5789601095412860e-04 0.0000000000000000e+00  1.1087509639885462e+00 9.3932680307458136e-03 0.0000000000000000e+00  1.0270273469524529e+00 5.9065227843273976e-02 0.0000000000000000e+00  1.0771479968767519e+00 4.7059558841857811e-04 0.0000000000000000e+00  1.1064429235817073e+00 8.0457251930311086e-02 0.0000000000000000e+00  1.0987196708266145e+00 -9.2508949787970841e-03 0.0000000000000000e+00  1.1450793317897465e+00 -1.2510119859387964e-01 0.0000000000000000e+00  1.0205731907324072e+00 2.9464951631725961e-01 0.0000000000000000e+00  1.1794649681117688e+00 -1.3060446903022357e-01 0.0000000000000000e+00  1.1001666944745834e+00 -3.5670879994583109e-03 0.0000000000000000e+00  1.0744533215639072e+00 -3.1417259160438282e-04 0.0000000000000000e+00  1.8952754656737612e+00 -3.8863444036599704e-01 0.0000000000000000e+00  -1.0647911094799034e+00 -2.0171853101535664e-01 0.0000000000000000e+00  1.0778336780660303e+00 -7.7817953556582882e-04 0.0000000000000000e+00  1.4575889372676374e+00 -6.5381968722825354e-02 0.0000000000000000e+00  1.0714778403281147e+00 2.9731139524858285e-05 0.0000000000000000e+00  1.0713289068704759e+00 -7.2116407862598125e-03 0.0000000000000000e+00  1.0811372449287544e+00 8.6827668257118888e-04 0.0000000000000000e+00  1.0849223636743979e+00 4.4944707894507196e-03 0.0000000000000000e+00  1.0865124979471799e+00 1.7204063218535198e-03 0.0000000000000000e+00  1.0829522901149393e+00 -1.2521476664791261e-03 0.0000000000000000e+00  1.0683323247726362e+00 -2.7979190208488190e-03 0.0000000000000000e+00  1.0807967543541941e+00 2.0582127397713499e-03 0.0000000000000000e+00  1.0775207373133067e+00 -5.6108089113752800e-03 0.0000000000000000e+00  1.1339230622297021e+00 -1.7618969458216493e-03 0.0000000000000000e+00  1.0781318214362421e+00 -1.9653440291970696e-03 0.0000000000000000e+00  1.0834420769250013e+00 -1.2089471613754292e-03 0.0000000000000000e+00  1.0868628071818474e+00 -4.7935634107378316e-03 0.0000000000000000e+00  1.1014682448682021e+00 4.6980664453511603e-03 0.0000000000000000e+00  1.0921021840699983e+00 7.5918187521959854e-03 0.0000000000000000e+00  1.0519926252074985e+00 -3.5955612202138148e-03 0.0000000000000000e+00  1.0824789407096527e+00 -5.9708586638942745e-04 0.0000000000000000e+00  1.0828338803145987e+00 1.4024446127412209e-05 0.0000000000000000e+00  1.0794727281645908e+00 4.0597800849610853e-04 0.0000000000000000e+00  1.0878003391608677e+00 3.1510132388192749e-04 0.0000000000000000e+00  1.0719169317305826e+00 4.6067417490865889e-03 0.0000000000000000e+00  1.0702272811718152e+00 -4.2318343401525150e-03 0.0000000000000000e+00  1.1119481630380093e+00 1.5454526643168124e-02 0.0000000000000000e+00  1.0620187662113314e+00 -5.6896954387462752e-03 0.0000000000000000e+00  1.0572239478146574e+00 -2.4993322926927640e-04 0.0000000000000000e+00  1.0722855209467690e+00 5.1463399948050341e-03 0.0000000000000000e+00  1.0492996973321649e+00 -4.6100836562363301e-02 0.0000000000000000e+00  1.0800893810238810e+00 -7.7334288236501382e-03 0.0000000000000000e+00  1.2319321521556486e+00 -4.3006204290912259e-01 0.0000000000000000e+00  9.8895281978901306e-01 -1.2952090147722705e-03 0.0000000000000000e+00  1.0681827711951737e+00 2.4945288558677378e-02 0.0000000000000000e+00  1.0842241586184809e+00 -6.2706634378805327e-04 0.00