<?xml version="1.0"?>
<VTKFile type="UnstructuredGrid"  version="0.1"  >
<UnstructuredGrid>
<Piece  NumberOfPoints="4269" NumberOfCells="8234">
<Points>
<DataArray  type="Float64"  NumberOfComponents="3"  format="ascii">0 1 0  0 0 0  7.5 0 0  7.5 1 0  1.197537668119028 0.5812868930080463 0  1.2 0.55 0  1.197537668119028 0.5187131069919538 0  1.190211303259031 0.4881966011250105 0  1.178201304837674 0.4592019000520907 0  1.161803398874989 0.4324429495415054 0  1.141421356237309 0.4085786437626905 0  1.117557050458495 0.3881966011250105 0  1.090798099947909 0.3717986951623264 0  1.06180339887499 0.3597886967409693 0  1.031286893008046 0.3524623318809725 0  1 0.35 0  0.9687131069919538 0.3524623318809725 0  0.9381966011250105 0.3597886967409694 0  0.9092019000520906 0.3717986951623264 0  0.8824429495415054 0.3881966011250105 0  0.8585786437626904 0.4085786437626905 0  0.8381966011250105 0.4324429495415054 0  0.8217986951623264 0.4592019000520907 0  0.8097886967409692 0.4881966011250107 0  0.8024623318809725 0.5187131069919539 0  0.8 0.55 0  0.8024623318809725 0.5812868930080463 0  0.8097886967409693 0.6118033988749896 0  0.8217986951623264 0.6407980999479095 0  0.8381966011250105 0.6675570504584947 0  0.8585786437626906 0.6914213562373096 0  0.8824429495415054 0.7118033988749896 0  0.9092019000520907 0.7282013048376736 0  0.9381966011250106 0.7402113032590307 0  0.9687131069919539 0.7475376681190276 0  1 0.75 0  1.031286893008046 0.7475376681190276 0  1.06180339887499 0.7402113032590307 0  1.090798099947909 0.7282013048376736 0  1.117557050458495 0.7118033988749896 0  1.141421356237309 0.6914213562373095 0  1.161803398874989 0.6675570504584947 0  1.178201304837674 0.6407980999479094 0  1.190211303259031 0.6118033988749896 0  3.75 0 0  3.75 1 0  1.875 0 0  1.875 1 0  0.9375 0 0  0.9375 1 0  1.40625 1 0  5.625 1 0  5.625 0 0  2.8125 1 0  2.8125 0 0  4.6875 0 0  4.6875 1 0  6.5625 0 0  6.5625 1 0  5.15625 0.5 0  4.21875 0.5 0  2.34375 0.5 0  3.28125 0.5 0  6.09375 0.5 0  7.5 0.5 0  6.897916666666666 0.5 0  1.842708333333333 0.5 0  0 0.5 0  0.46875 0 0  5.625 0.5302734375 0  7.03125 0 0  6.09375 1 0  2.8125 0.4697265625 0  3.28125 0 0  2.34375 1 0  2.34375 0 0  3.75 0.4697265625 0  4.21875 0 0  4.21875 1 0  4.6875 0.5302734375 0  3.28125 1 0  5.15625 0 0  6.09375 0 0  5.15625 1 0  0.46875 1 0  1.40625 0 0  7.03125 1 0  0.3954638734376499 0.5975780249976004 0  6.495833333333334 0.4072265624999998 0  5.859375 0.25 0  4.905729166666666 0.26513671875 0  4.453125 0.25 0  3.531770833333333 0.73486328125 0  3.968229166666667 0.73486328125 0  2.594270833333333 0.73486328125 0  3.030729166666667 0.73486328125 0  6.328125 0.75 0  7.198958333333334 0.3125000000000002 0  7.198958333333334 0.6874999999999998 0  5.390625 0.25 0  0 0.25 0  2.109375 0.75 0  2.109375 0.25 0  1.51921323205749 0.3418883887525936 0  1.522346610178253 0.6811769608297746 0  5.375456746419271 0.75 0  4.921875 0.76513671875 0  4.437956746419271 0.75 0  3.984375 0.23486328125 0  3.500456746419271 0.25 0  2.578125 0.23486328125 0  3.046875 0.23486328125 0  5.874543253580729 0.75 0  6.642123189445656 0.6909095493086836 0  6.746354166666666 0.2391688368055553 0  0.3197109619185111 0.2850049285972083 0  6.328125 0 0  0.6313375889370429 0.2351325552547357 0  0 0.75 0  6.252283381534729 0.2693808819694041 0  0.234375 1 0  6.948437500000001 0.7543055555555555 0  0.5934018769555939 0.7694151657947577 0  1.858854166666667 0.75 0  1.858854166666667 0.25 0  1.640625 0 0  2.093229166666667 0.5 0  7.5 0.25 0  3.282227579752604 0.75 0  7.5 0.75 0  1.171875 0 0  1.303539853147731 0.2235426933121065 0  5.148177083333333 0.2575683593749998 0  2.351822916666667 0.742431640625 0  1.640625 1 0  4.202380413457425 0.7645435094236485 0  3.047822985053062 0.4701848030090332 0  2.577177014946938 0.4701848030090332 0  4.672792740482199 0.76513671875 0  4.922822985053062 0.5298151969909668 0  5.390593497949761 0.5156244924311331 0  5.610292740482199 0.76513671875 0  3.516602579752604 0.5 0  4.45496853898097 0.4865915990446593 0  5.85753146101903 0.4865915990446593 0  3.749511210123698 0.23486328125 0  3.983397420247396 0.4999999999999999 0  2.343497975411212 0.2346270081980111 0  4.219002024588788 0.2346270081980111 0  0.703125 0 0  2.8125 0.2343755075688669 0  3.046875 0 0  2.578125 0 0  3.515625 0 0  3.984375 0 0  4.453125 1 0  5.390625 1 0  2.109375 0 0  2.109375 1 0  5.625 0.2921402030705575 0  5.390625 0 0  7.265625 0 0  6.796875 0 0  6.328125 1 0  3.046875 1 0  2.578125 1 0  3.984375 1 0  3.515625 1 0  4.453125 0 0  4.921875 0 0  5.859375 0 0  0.703125 1 0  1.171875 1 0  7.265625 1 0  4.921875 1 0  5.859375 1 0  0.234375 0 0  6.796875 1 0  6.980310975276531 0.2285890127127066 0  5.149170481934885 0.772689292163473 0  3.274170481934884 0.2273107078365268 0  6.101334126790364 0.7722468376159667 0  4.678005340872584 0.3000799877067239 0  2.8125 0.6921051326382495 0  3.75 0.6921051326382495 0  0.3515624999999999 0.8134571721668546 0  0.4990405774417521 0.4070099317153735 0  0.1789273931360182 0.625 0  6.31239060814315 0.5298877111157968 0  6.456979773992304 0.1917956348713352 0  6.699870808919271 0.4406293402777773 0  1.337539480965883 0.7944303676599538 0  6.058675797563041 0.2019812164653516 0  0.8203125 0.1643029084422534 0  0.1480856513011711 0.375 0  1.090769294689562 0.1719186776982972 0  7.291088163206459 0.5 0  7.094502414936563 0.5197902199074071 0  0.6046212059042245 0.5730066483871106 0  1.707231580809486 0.6342709161352207 0  1.685961352504593 0.8193269193390785 0  1.374721602852827 0.4600373025865813 0  6.486415510043844 0.5916440776477192 0  1.5234375 0.1508863828685116 0  1.707925830421689 0.3657739208189008 0  0.1674513225045584 0.8278776664019765 0  7.138268756771176 0.1438183366439137 0  7.1484375 0.8616388888888887 0  7.328562530764119 0.819498462930605 0  4.101073710123698 0.3678637200736647 0  1.693878467219965 0.1911955120941053 0  1.577566745468488 0.5110082404081502 0  6.6796875 0.8653871806883484 0  6.498039504430512 0.825568433346395 0  0.7562556668576472 0.8333197949571929 0  4.101045914668806 0.6255195807449272 0  5.030745188395182 0.382829047309028 0  2.476364945868651 0.6095868094762166 0  2.729359843907322 0.8460525663191247 0  2.9296875 0.8740763101564099 0  3.163518307559356 0.6254622797994247 0  3.666859843907322 0.8460525663191247 0  3.8671875 0.8740763101564099 0  4.8046875 0.12592368984359 0  3.14936031382311 0.8606990583876851 0  2.4609375 0.8747622921397776 0  5.023140791101972 0.1392266772452574 0  0 0.125 0  0.1759922923594607 0.1727589856739889 0  4.5703125 0.125 0  7.327755777818006 0.1766156770456191 0  5.5078125 0.125 0  5.719712725029036 0.1460701015352787 0  4.327848962028002 0.3674169956512513 0  5.982681121544351 0.3692637923021713 0  3.398926289876302 0.6245417594909667 0  5.281756792511996 0.3827993367299961 0  2.226822645963271 0.6252438868405666 0  2.234390064317166 0.8676616584526566 0  5.2734375 0.125 0  1.96796875 0.382568359375 0  2.234651037971999 0.3674169956512511 0  1.984114583333333 0.132568359375 0  1.9921875 0.875 0  1.984114583333333 0.632568359375 0  5.748733794462357 0.8678269127183313 0  3.3984375 0.875456329184688 0  1.512925924995415 0.8582958012121853 0  1.359299372802969 0.6275861864990343 0  4.810521420483513 0.4041767793635395 0  0.2996213306116602 0.455339710363317 0  5.999933717403708 0.6388425470751088 0  5.250033449003657 0.6388713364551682 0  3.631676045992918 0.3525406652400928 0  4.3359375 0.8816499670325881 0  4.343577437052484 0.6116511299909198 0  3.375033449003656 0.3611286635448316 0  5.763152151652243 0.6249404690537395 0  4.549347848347757 0.6249404690537396 0  5.5004588702411 0.6403667365776566 0  5.976118394847484 0.8816230218343086 0  5.054722486865804 0.6338007028640954 0  3.164542163493752 0.3520519332736524 0  2.445407482032355 0.3672168403687257 0  4.8046875 0.882568359375 0  4.1015625 0.117431640625 0  2.4609375 0.117431640625 0  2.695556894938151 0.3520510350344335 0  2.929443105061849 0.3520510350344335 0  3.881979231817319 0.3670559016511187 0  3.8671875 0.117431640625 0  4.805389247695744 0.6470047893641744 0  3.399370721942191 0.1184066543556767 0  5.274370721942192 0.881593345644323 0  3.618253274934649 0.1316869186284249 0  2.6953125 0.1171877537844335 0  2.9296875 0.1171877537844335 0  2.21873344389451 0.125 0  4.3359375 0.1171877625080073 0  0.6659898565672709 0.3986593551313873 0  7.363359022954956 0.3481046411219251 0  7.363359022954956 0.6518953588780749 0  5.487719392831826 0.3828237631077121 0  2.695054578344725 0.5809158475691247 0  2.944553877887707 0.5964065668438148 0  0.3515625 0.1201898858097106 0  5.5078125 1 0  4.5703125 1 0  5.031746201297604 0.882568359375 0  3.1640625 0 0  6.2109375 1 0  6.186845385763124 0.6336356480571081 0  4.1015625 1 0  6.810399074069772 0.6495574751396682 0  0.4740615253480797 0.2509287743856873 0  7.052064303830151 0.3684417917792242 0  6.195177069665382 0.1216488332168849 0  5.72300154718324 0.4112068202852788 0  3.879157465495092 0.6111892850691246 0  3.645760045247695 0.5809158475691247 0  6.868257400485771 0.3427840810237202 0  6.612030892260864 0.1521752713064389 0  6.615666885941117 0.3151079644097221 0  4.04296875 0.8633718902669071 0  1.183031453639096 0.8486801864185936 0  6.9140625 0 0  6.859079526500421 0.1398292786950638 0  6.808232443325651 0.7957411753922057 0  6.9140625 1 0  4.544955211100143 0.3675874343205077 0  1.0546875 1 0  6.122060236165557 0.3316791557072867 0  0.5859375 0 0  5.9765625 0 0  5.44921875 0.870984788733638 0  4.51171875 0.870984788733638 0  0.7608354256382215 0.2931261274224557 0  6.386875332239937 0.3156583003094978 0  6.985654756850997 0.6147408423643147 0  6.223797257919172 0.8535621912121121 0  5.936822413218736 0.1338376546337823 0  6.23933008800134 0.4095573603773768 0  0.5414022462152697 0.1305482677949959 0  6.331360438104348 0.1370086318183389 0  0.956404929269873 0.1374266563647954 0  1.2890625 1 0  0.691305981127761 0.6764829884281737 0  3.531251607241209 0.8678916320952239 0  2.59787442813022 
[...]
<PointData  Vectors="f_71627"> 
<DataArray  type="Float64"  Name="f_71627"  NumberOfComponents="3" format="ascii">0.0000000000000000e+00 0.0000000000000000e+00 0.0000000000000000e+00  0.0000000000000000e+00 0.0000000000000000e+00 0.0000000000000000e+00  0.0000000000000000e+00 0.0000000000000000e+00 0.0000000000000000e+00  0.0000000000000000e+00 0.0000000000000000e+00 0.0000000000000000e+00  0.0000000000000000e+00 0.0000000000000000e+00 0.0000000000000000e+00  0.0000000000000000e+00 0.0000000000000000e+00 0.0000000000000000e+00  0.0000000000000000e+00 0.0000000000000000e+00 0.0000000000000000e+00  0.0000000000000000e+00 0.0000000000000000e+00 0.0000000000000000e+00  0.0000000000000000e+00 0.0000000000000000e+00 0.0000000000000000e+00  0.0000000000000000e+00 0.0000000000000000e+00 0.0000000000000000e+00  0.0000000000000000e+00 0.0000000000000000e+00 0.0000000000000000e+00  0.0000000000000000e+00 0.0000000000000000e+00 0.0000000000000000e+00  0.0000000000000000e+00 0.0000000000000000e+00 0.0000000000000000e+00  0.0000000000000000e+00 0.0000000000000000e+00 0.0000000000000000e+00  0.0000000000000000e+00 0.0000000000000000e+00 0.0000000000000000e+00  0.0000000000000000e+00 0.0000000000000000e+00 0.0000000000000000e+00  0.0000000000000000e+00 0.0000000000000000e+00 0.0000000000000000e+00  0.0000000000000000e+00 0.0000000000000000e+00 0.0000000000000000e+00  0.0000000000000000e+00 0.0000000000000000e+00 0.0000000000000000e+00  0.0000000000000000e+00 0.0000000000000000e+00 0.0000000000000000e+00  0.0000000000000000e+00 0.0000000000000000e+00 0.0000000000000000e+00  0.0000000000000000e+00 0.0000000000000000e+00 0.0000000000000000e+00  0.0000000000000000e+00 0.0000000000000000e+00 0.0000000000000000e+00  0.0000000000000000e+00 0.0000000000000000e+00 0.0000000000000000e+00  0.0000000000000000e+00 0.0000000000000000e+00 0.0000000000000000e+00  0.0000000000000000e+00 0.0000000000000000e+00 0.0000000000000000e+00  0.0000000000000000e+00 0.0000000000000000e+00 0.0000000000000000e+00  0.0000000000000000e+00 0.0000000000000000e+00 0.0000000000000000e+00  0.0000000000000000e+00 0.0000000000000000e+00 0.0000000000000000e+00  0.0000000000000000e+00 0.0000000000000000e+00 0.0000000000000000e+00  0.0000000000000000e+00 0.0000000000000000e+00 0.0000000000000000e+00  0.0000000000000000e+00 0.0000000000000000e+00 0.0000000000000000e+00  0.0000000000000000e+00 0.0000000000000000e+00 0.0000000000000000e+00  0.0000000000000000e+00 0.0000000000000000e+00 0.0000000000000000e+00  0.0000000000000000e+00 0.0000000000000000e+00 0.0000000000000000e+00  0.0000000000000000e+00 0.0000000000000000e+00 0.0000000000000000e+00  0.0000000000000000e+00 0.0000000000000000e+00 0.0000000000000000e+00  0.0000000000000000e+00 0.0000000000000000e+00 0.0000000000000000e+00  0.0000000000000000e+00 0.0000000000000000e+00 0.0000000000000000e+00  0.0000000000000000e+00 0.0000000000000000e+00 0.0000000000000000e+00  0.0000000000000000e+00 0.0000000000000000e+00 0.0000000000000000e+00  0.0000000000000000e+00 0.0000000000000000e+00 0.0000000000000000e+00  0.0000000000000000e+00 0.0000000000000000e+00 0.0000000000000000e+00  0.0000000000000000e+00 0.0000000000000000e+00 0.0000000000000000e+00  0.0000000000000000e+00 0.0000000000000000e+00 0.0000000000000000e+00  0.0000000000000000e+00 0.0000000000000000e+00 0.0000000000000000e+00  0.0000000000000000e+00 0.0000000000000000e+00 0.0000000000000000e+00  0.0000000000000000e+00 0.0000000000000000e+00 0.0000000000000000e+00  0.0000000000000000e+00 0.0000000000000000e+00 0.0000000000000000e+00  0.0000000000000000e+00 0.0000000000000000e+00 0.0000000000000000e+00  0.0000000000000000e+00 0.0000000000000000e+00 0.0000000000000000e+00  0.0000000000000000e+00 0.0000000000000000e+00 0.0000000000000000e+00  0.0000000000000000e+00 0.0000000000000000e+00 0.0000000000000000e+00  0.0000000000000000e+00 0.0000000000000000e+00 0.0000000000000000e+00  0.0000000000000000e+00 0.0000000000000000e+00 0.0000000000000000e+00  0.0000000000000000e+00 0.0000000000000000e+00 0.0000000000000000e+00  0.0000000000000000e+00 0.0000000000000000e+00 0.0000000000000000e+00  0.0000000000000000e+00 0.0000000000000000e+00 0.0000000000000000e+00  0.0000000000000000e+00 0.0000000000000000e+00 0.0000000000000000e+00  1.1396296484117616e+00 -7.9739104569163787e-03 0.0000000000000000e+00  1.0986917098092026e+00 -2.8501678620302079e-01 0.0000000000000000e+00  1.9296279755530414e+00 6.2682270222625558e-01 0.0000000000000000e+00  2.1740519524664434e+00 -7.6342657628889843e-01 0.0000000000000000e+00  1.1386520433637386e+00 -8.9283722549963779e-04 0.0000000000000000e+00  1.5000002085033595e+00 0.0000000000000000e+00 0.0000000000000000e+00  1.2135807684824953e+00 -1.5822244203259909e-03 0.0000000000000000e+00  1.3441315174571662e+00 -1.4373448120029522e+00 0.0000000000000000e+00  1.5000002085033595e+00 0.0000000000000000e+00 0.0000000000000000e+00  0.0000000000000000e+00 0.0000000000000000e+00 0.0000000000000000e+00  1.1476265677981685e+00 2.1895179019480222e-04 0.0000000000000000e+00  0.0000000000000000e+00 0.0000000000000000e+00 0.0000000000000000e+00  0.0000000000000000e+00 0.0000000000000000e+00 0.0000000000000000e+00  1.4214866626041716e+00 -1.9077074117136983e-01 0.0000000000000000e+00  0.0000000000000000e+00 0.0000000000000000e+00 0.0000000000000000e+00  0.0000000000000000e+00 0.0000000000000000e+00 0.0000000000000000e+00  0.0000000000000000e+00 0.0000000000000000e+00 0.0000000000000000e+00  9.9388291697362663e-01 9.2841354935055054e-01 0.0000000000000000e+00  0.0000000000000000e+00 0.0000000000000000e+00 0.0000000000000000e+00  0.0000000000000000e+00 0.0000000000000000e+00 0.0000000000000000e+00  1.1746796133595181e+00 -8.9404769813530641e-02 0.0000000000000000e+00  0.0000000000000000e+00 0.0000000000000000e+00 0.0000000000000000e+00  0.0000000000000000e+00 0.0000000000000000e+00 0.0000000000000000e+00  0.0000000000000000e+00 0.0000000000000000e+00 0.0000000000000000e+00  0.0000000000000000e+00 0.0000000000000000e+00 0.0000000000000000e+00  0.0000000000000000e+00 0.0000000000000000e+00 0.0000000000000000e+00  0.0000000000000000e+00 0.0000000000000000e+00 0.0000000000000000e+00  0.0000000000000000e+00 0.0000000000000000e+00 0.0000000000000000e+00  1.3603557061841085e+00 -3.0502697835904997e-02 0.0000000000000000e+00  1.1600661485219907e+00 -3.5042456458255350e-03 0.0000000000000000e+00  1.1433636500107660e+00 -2.9075736058643874e-04 0.0000000000000000e+00  1.0929965264932751e+00 -1.9382869288669568e-02 0.0000000000000000e+00  9.0945672021288348e-01 -1.2722011126874525e-01 0.0000000000000000e+00  6.6343783502488840e-01 7.8322063761690730e-01 0.0000000000000000e+00  1.8696823029650183e+00 7.0861017388254705e-02 0.0000000000000000e+00  9.6463476607126930e-01 6.4255586808878939e-01 0.0000000000000000e+00  1.0188948051759967e+00 -7.1319951761409195e-01 0.0000000000000000e+00  1.1453685666885365e+00 -5.2060786931901323e-04 0.0000000000000000e+00  8.7691424030567189e-01 -2.9744878811270711e-03 0.0000000000000000e+00  9.9203300046522003e-01 1.3165309958937957e-02 0.0000000000000000e+00  1.1286758983890166e+00 -9.3377956745758269e-04 0.0000000000000000e+00  1.1250001563775196e+00 0.0000000000000000e+00 0.0000000000000000e+00  2.9424688681318034e-01 -4.5481637736478298e-01 0.0000000000000000e+00  1.7702541707424058e+00 2.8720376773214359e-02 0.0000000000000000e+00  1.3828504544533902e+00 1.0074579828646493e+00 0.0000000000000000e+00  1.1911727186162993e+00 -9.0735976958251377e-02 0.0000000000000000e+00  1.1440310898891310e+00 1.4312987764992960e-04 0.0000000000000000e+00  1.1638840979729574e+00 -2.2869861782931185e-03 0.0000000000000000e+00  1.4752291836076430e+00 -2.1023698358662862e-01 0.0000000000000000e+00  7.5935361867700679e-01 1.8225024934184006e-01 0.0000000000000000e+00  1.4805275746184294e+00 -2.1698251764110854e-01 0.0000000000000000e+00  7.0127989748589936e-01 6.2383095265121487e-02 0.0000000000000000e+00  1.3587748425278665e+00 3.8244853333691337e-01 0.0000000000000000e+00  1.1465963216055508e+00 -9.2471089580116982e-04 0.0000000000000000e+00  1.1274114524338710e+00 -6.8675773590557874e-04 0.0000000000000000e+00  1.1366811813824060e+00 -6.2972747917778285e-03 0.0000000000000000e+00  1.2355657676924414e+00 -8.9303192121762270e-02 0.0000000000000000e+00  0.0000000000000000e+00 0.0000000000000000e+00 0.0000000000000000e+00  1.2596368775374058e+00 -3.0168365015433207e-01 0.0000000000000000e+00  1.1250001563775196e+00 0.0000000000000000e+00 0.0000000000000000e+00  1.1476252799291111e+00 1.9732687882055328e-03 0.0000000000000000e+00  0.0000000000000000e+00 0.0000000000000000e+00 0.0000000000000000e+00  1.2729949040120010e+00 -2.6076384492528811e-04 0.0000000000000000e+00  1.0316340545187688e+00 2.0911313794538744e-01 0.0000000000000000e+00  1.5749830081209704e+00 -8.9077815340663291e-01 0.0000000000000000e+00  7.3699919258380675e-01 -3.2347523581433901e-01 0.0000000000000000e+00  0.0000000000000000e+00 0.0000000000000000e+00 0.0000000000000000e+00  1.4725616428669335e+00 -6.9039187062504448e-01 0.0000000000000000e+00  1.1250001563775196e+00 0.0000000000000000e+00 0.0000000000000000e+00  4.5386632113393405e-01 -5.7745874606043845e-01 0.0000000000000000e+00  1.1250001563775196e+00 0.0000000000000000e+00 0.0000000000000000e+00  0.0000000000000000e+00 0.0000000000000000e+00 0.0000000000000000e+00  2.0680596539014333e+00 2.7645481199696259e-01 0.0000000000000000e+00  1.1235604034220288e+00 -5.4827163824488472e-03 0.0000000000000000e+00  -2.6015028139622740e-02 4.9485089813377497e-01 0.0000000000000000e+00  0.0000000000000000e+00 0.0000000000000000e+00 0.0000000000000000e+00  1.5354585916515808e+00 -1.5279029886348480e-01 0.0000000000000000e+00  1.6579134632450803e+00 -4.8449872055137488e-01 0.0000000000000000e+00  2.0115686968591606e+00 8.9706610104419893e-01 0.0000000000000000e+00  1.1968586888455790e+00 -2.1562666114784673e-02 0.0000000000000000e+00  1.1527365413300226e+00 -2.5365596074529560e-02 0.0000000000000000e+00  1.1434990769465880e+00 -9.1829557981335040e-04 0.0000000000000000e+00  1.1457516704675512e+00 5.4480967240734166e-04 0.0000000000000000e+00  1.8300009274545044e+00 3.8505790280949520e-01 0.0000000000000000e+00  1.0837222078412061e+00 -4.3623784016919781e-01 0.0000000000000000e+00  1.1502100758798561e+00 2.1498079857707326e-04 0.0000000000000000e+00  1.1180961335837871e+00 2.5118525878462578e-01 0.0000000000000000e+00  8.0205913512293980e-01 1.2872821689407740e-01 0.0000000000000000e+00  1.7460713372847834e+00 6.9024697967581417e-01 0.0000000000000000e+00  7.1680084829163115e-01 -5.8068795164518600e-02 0.0000000000000000e+00  0.0000000000000000e+00 0.0000000000000000e+00 0.0000000000000000e+00  8.2399711500961936e-01 -1.8938593312544694e-01 0.0000000000000000e+00  0.0000000000000000e+00 0.0000000000000000e+00 0.0000000000000000e+00  0.0000000000000000e+00 0.0000000000000000e+00 0.0000000000000000e+00  0.0000000000000000e+00 0.0000000000000000e+00 0.0000000000000000e+00  0.0000000000000000e+00 0.0000000000000000e+00 0.0000000000000000e+00  0.0000000000000000e+00 0.0000000000000000e+00 0.0000000000000000e+00  0.0000000000000000e+00 0.0000000000000000e+00 0.0000000000000000e+00  0.0000000000000000e+00 0.0000000000000000e+00 0.0000000000000000e+00  0.0000000000000000e+00 0.0000000000000000e+00 0.0000000000000000e+00  1.1345408700341706e+00 -2.3454834630257142e-04 0.0000000000000000e+00  0.0000000000000000e+00 0.0000000000000000e+00 0.0000000000000000e+00  0.0000000000000000e+00 0.0000000000000000e+00 0.0000000000000000e+00  0.0000000000000000e+00 0.0000000000000000e+00 0.0000000000000000e+00  0.0000000000000000e+00 0.0000000000000000e+00 0.0000000000000000e+00  0.0000000000000000e+00 0.0000000000000000e+00 0.0000000000000000e+00  0.0000000000000000e+00 0.0000000000000000e+00 0.0000000000000000e+00  0.0000000000000000e+00 0.0000000000000000e+00 0.0000000000000000e+00  0.0000000000000000e+00 0.0000000000000000e+00 0.0000000000000000e+00  0.0000000000000000e+00 0.0000000000000000e+00 0.0000000000000000e+00  0.0000000000000000e+00 0.0000000000000000e+00 0.0000000000000000e+00  0.0000000000000000e+00 0.0000000000000000e+00 0.0000000000000000e+00  0.0000000000000000e+00 0.0000000000000000e+00 0.0000000000000000e+00  0.0000000000000000e+00 0.0000000000000000e+00 0.0000000000000000e+00  0.0000000000000000e+00 0.0000000000000000e+00 0.0000000000000000e+00  0.0000000000000000e+00 0.0000000000000000e+00 0.0000000000000000e+00  0.0000000000000000e+00 0.0000000000000000e+00 0.0000000000000000e+00  0.0000000000000000e+00 0.0000000000000000e+00 0.0000000000000000e+00  0.0000000000000000e+00 0.0000000000000000e+00 0.0000000000000000e+00  1.1765226585503841e+00 -2.4232381308074476e-03 0.0000000000000000e+00  1.1473082071860530e+00 -1.4752730339705309e-03 0.0000000000000000e+00  1.5859188157558961e+00 -5.8129941860187007e-01 0.0000000000000000e+00  1.1453981997372154e+00 -8.4703501239993936e-04 0.0000000000000000e+00  1.0566490339975416e+00 -6.8715653117994310e-02 0.0000000000000000e+00  1.3302556676292696e+00 -1.2182251705415874e-01 0.0000000000000000e+00  9.6969543498507682e-01 1.2318385800421614e+00 0.0000000000000000e+00  8.9734068237761111e-01 2.1478025319469223e-02 0.0000000000000000e+00  1.3603553629936807e+00 -1.7144510235011226e-01 0.0000000000000000e+00  1.3927209455187066e+00 -2.4472050161356233e-02 0.0000000000000000e+00  1.1431129239651314e+00 -1.1462941591614828e-03 0.0000000000000000e+00  1.1600676620502703e+00 -1.9398789263583038e-03 0.0000000000000000e+00  1.1927652521075491e+00 -5.8484196339196708e-03 0.0000000000000000e+00  1.9810482709360220e+00 1.8572888065622538e-02 0.0000000000000000e+00  1.1441979057957130e+00 1.4972835649050655e-03 0.0000000000000000e+00  1.4581397752005680e+00 -3.3131839306371264e-01 0.0000000000000000e+00  1.4048444347430289e+00 -3.7883300583675804e-02 0.0000000000000000e+00  1.9641919713442644e+00 -5.8551128143423094e-02 0.0000000000000000e+00  1.3814037710175242e+00 3.7131864732077237e-03 0.0000000000000000e+00  1.3636248579131351e+00 3.6691825699468957e-03 0.0000000000000000e+00  1.1421404848469014e+00 1.1171848765301405e-02 0.0000000000000000e+00  1.6658321651842720e+00 -7.8757719973537821e-01 0.0000000000000000e+00  1.9316634161501924e+00 -8.5526575362521517e-01 0.0000000000000000e+00  -1.4021474059735187e-01 3.5271588346812471e-01 0.0000000000000000e+00  1.1482359339776775e+00 -1.8423304380961042e-03 0.0000000000000000e+00  1.4021615527853577e+00 2.2352947215095545e-01 0.0000000000000000e+00  -9.5131674891780441e-02 6.0532518442750805e-01 0.0000000000000000e+00  8.4979881416386582e-01 -7.7754992615711727e-03 0.0000000000000000e+00  8.9346100782763438e-01 4.3486532347037667e-04 0.0000000000000000e+00  1.0051507767929255e+00 -1.3941397088094627e-03 0.0000000000000000e+00  8.0943587813387208e-01 -7.4027568516263804e-03 0.0000000000000000e+00  5.7688114619226338e-01 2.2281334300503029e-02 0.0000000000000000e+00  1.1960864006768250e+00 -2.7746017127278071e-02 0.0000000000000000e+00  -3.8062382691140234e-01 1.0178939006113683e+00 0.0000000000000000e+00  1.0812398854444589e+00 7.3788402750897143e-03 0.0000000000000000e+00  1.0610216744458276e+00 -3.6934719290339295e-03 0.0000000000000000e+00  1.1361167545512312e+00 4.1263906234183223e-01 0.0000000000000000e+00  1.6986863148042251e+00 -4.9384258572044520e-01 0.0000000000000000e+00  1.1327626181329238e+00 -1.8184299016411228e-02 0.0000000000000000e+00  1.2759117309920691e+00 1.4862331456064961e+00 0.0000000000000000e+00  1.1090356737057634e+00 -4.2099703990279798e-02 0.0000000000000000e+00  7.3354279432942482e-01 -4.9680093212455111e-02 0.0000000000000000e+00  1.4952579938357082e+00 -8.0686653141262110e-01 0.0000000000000000e+00  5.7814954866341328e-01 9.4962439221904560e-01 0.0000000000000000e+00  1.5388276398037797e+00 9.7497639426710817e-02 0.0000000000000000e+00  9.9432410416627337e-01 -6.4893497452409290e-03 0.0000000000000000e+00  2.2767781299555007e-01 -3.0852984905188324e-01 0.0000000000000000e+00  3.2876844123847426e-01 3.2254785068903391e-01 0.0000000000000000e+00  1.0471611512982701e+00 -6.6463905313328484e-05 0.0000000000000000e+00  6.5625009122021982e-01 0.0000000000000000e+00 0.0000000000000000e+00  8.6753236845810300e-01 -3.6375989207581789e-02 0.0000000000000000e+00  9.3374508176932780e-01 -2.8802497679985283e-02 0.0000000000000000e+00  5.9152966968983733e-01 2.7518168702284893e-02 0.0000000000000000e+00  1.0238464286379918e+00 1.8550259383391054e-03 0.0000000000000000e+00  1.0772842642137810e+00 -4.0834572823419604e-04 0.0000000000000000e+00  7.5325029576477343e-01 -2.4221263583891081e-01 0.0000000000000000e+00  1.1278025462777768e+00 -4.4834562218227923e-04 0.0000000000000000e+00  1.4119944228321060e+00 -3.1870521886354843e-02 0.0000000000000000e+00  1.1347357244143095e+00 -3.2617535334763161e-03 0.0000000000000000e+00  9.4034168317640898e-01 -3.7631610420240647e-01 0.0000000000000000e+00  -1.1643263402002157e-01 -3.3351172649040799e-02 0.0000000000000000e+00  1.0236496163549511e+00 -1.9841312008953628e-04 0.0000000000000000e+00  1.1163469127504280e+00 -8.8673493706081352e-01 0.0000000000000000e+00  1.7746053401328483e+00 -6.3544111849101359e-02 0.0000000000000000e+00  1.6576549862656460e+00 -3.1751274112890864e-03 0.0000000000000000e+00  1.9467581421323743e-01 1.9699351538108376e-01 0.0000000000000000e+00  1.4721836296019852e+00 -7.7393579792292477e-01 0.0000000000000000e+00  1.0447731812859520e+00 3.8493861828669569e-04 0.0000000000000000e+00  -3.6590643643881904e-01 -2.9156869345016937e-02 0.0000000000000000e+00  2.1375778013092512e+00 -4.2091090005143972e-01 0.0000000000000000e+00  -3.9053707085621764e-01 8.0728015211407245e-01 0.0000000000000000e+00  1.1285945085816873e+00 -4.1364465561825929e-02 0.0000000000000000e+00  1.4578106173771814e+00 -7.4200959382722781e-02 0.0000000000000000e+00  1.1454630595451074e+00 5.4381870160464544e-05 0.0000000000000000e+00  1.1534488699148631e+00 -4.1682057192869281e-03 0.0000000000000000e+00  1.6101932922553988e+00 6.4385899595390106e-01 0.0000000000000000e+00  1.0876056523677426e+00 -2.3816854420802759e-02 0.0000000000000000e+00  1.4447893058966579e+00 -2.5475416596793116e-01 0.0000000000000000e+00  2.1056676603513709e+00 -5.7304082437434922e-01 0.0000000000000000e+00  1.1497539763641333e+00 -4.4559219445933928e-04 0.0000000000000000e+00  1.3177788605989735e+00 -1.8548190631881623e-01 0.0000000000000000e+00  1.1515931463856361e+00 -1.7398871643894372e-03 0.0000000000000000e+00  1.0069674827845212e+00 1.5357513212260385e-03 0.0000000000000000e+00  1.1605473634445420e+00 -1.1984965361690626e-02 0.0000000000000000e+00  2.0389807138626255e+00 -2.8460839603484900e-01 0.0000000000000000e+00  2.3100372911254583e+00 1.3113503818647112e+00 0.0000000000000000e+00  9.9746439870251435e-01 7.3957546020353314e-03 0.0000000000000000e+00  7.5476331566718713e-01 6.3133139415082300e-03 0.0000000000000000e+00  4.9982124865482075e-01 9.9835200691448425e-02 0.0000000000000000e+00  1.2276601129427800e+00 -2.1078698343354660e-01 0.0000000000000000e+00  1.2348675203607724e+00 -2.2188248280229922e-01 0.0000000000000000e+00  8.1497666221674037e-01 4.4229935367281148e-01 0.0000000000000000e+00  8.5915358890364002e-01 7.0984443094470037e-02 0.0000000000000000e+00  1.1983486790750539e+00 -2.9444840333567878e-02 0.0000000000000000e+00  8.0876348850071744e-01 -5.8897438993355478e-01 0.0000000000000000e+00  9.9796834524464906e-01 -1.1059709125522827e-04 0.0000000000000000e+00  1.1046022120846306e+00 9.1497997058613445e-02 0.0000000000000000e+00  5.0821730594691450e-01 -6.5746324313284157e-02 0.0000000000000000e+00  4.4870259664686146e-01 1.3336122403010395e-01 0.0000000000000000e+00  1.1037761815874390e+00 1.4772512203198404e-01 0.0000000000000000e+00  8.0231880110472120e-01 -2.0898211569779133e-02 0.0000000000000000e+00  1.2402898124788710e+00 -4.2344292707611031e-01 0.0000000000000000e+00  1.0162942986548253e+00 -5.8503544832658513e-03 0.0000000000000000e+00  1.1037191537026285e+00 8.5156220334273048e-03 0.0000000000000000e+00  1.1361946552366902e+00 -1.70030