<?xml version="1.0"?>
<VTKFile type="UnstructuredGrid"  version="0.1"  >
<UnstructuredGrid>
<Piece  NumberOfPoints="4269" NumberOfCells="8234">
<Points>
<DataArray  type="Float64"  NumberOfComponents="3"  format="ascii">0 1 0  0 0 0  7.5 0 0  7.5 1 0  1.197537668119028 0.5812868930080463 0  1.2 0.55 0  1.197537668119028 0.5187131069919538 0  1.190211303259031 0.4881966011250105 0  1.178201304837674 0.4592019000520907 0  1.161803398874989 0.4324429495415054 0  1.141421356237309 0.4085786437626905 0  1.117557050458495 0.3881966011250105 0  1.090798099947909 0.3717986951623264 0  1.06180339887499 0.3597886967409693 0  1.031286893008046 0.3524623318809725 0  1 0.35 0  0.9687131069919538 0.3524623318809725 0  0.9381966011250105 0.3597886967409694 0  0.9092019000520906 0.3717986951623264 0  0.8824429495415054 0.3881966011250105 0  0.8585786437626904 0.4085786437626905 0  0.8381966011250105 0.4324429495415054 0  0.8217986951623264 0.4592019000520907 0  0.8097886967409692 0.4881966011250107 0  0.8024623318809725 0.5187131069919539 0  0.8 0.55 0  0.8024623318809725 0.5812868930080463 0  0.8097886967409693 0.6118033988749896 0  0.8217986951623264 0.6407980999479095 0  0.8381966011250105 0.6675570504584947 0  0.8585786437626906 0.6914213562373096 0  0.8824429495415054 0.7118033988749896 0  0.9092019000520907 0.7282013048376736 0  0.9381966011250106 0.7402113032590307 0  0.9687131069919539 0.7475376681190276 0  1 0.75 0  1.031286893008046 0.7475376681190276 0  1.06180339887499 0.7402113032590307 0  1.090798099947909 0.7282013048376736 0  1.117557050458495 0.7118033988749896 0  1.141421356237309 0.6914213562373095 0  1.161803398874989 0.6675570504584947 0  1.178201304837674 0.6407980999479094 0  1.190211303259031 0.6118033988749896 0  3.75 0 0  3.75 1 0  1.875 0 0  1.875 1 0  0.9375 0 0  0.9375 1 0  1.40625 1 0  5.625 1 0  5.625 0 0  2.8125 1 0  2.8125 0 0  4.6875 0 0  4.6875 1 0  6.5625 0 0  6.5625 1 0  5.15625 0.5 0  4.21875 0.5 0  2.34375 0.5 0  3.28125 0.5 0  6.09375 0.5 0  7.5 0.5 0  6.897916666666666 0.5 0  1.842708333333333 0.5 0  0 0.5 0  0.46875 0 0  5.625 0.5302734375 0  7.03125 0 0  6.09375 1 0  2.8125 0.4697265625 0  3.28125 0 0  2.34375 1 0  2.34375 0 0  3.75 0.4697265625 0  4.21875 0 0  4.21875 1 0  4.6875 0.5302734375 0  3.28125 1 0  5.15625 0 0  6.09375 0 0  5.15625 1 0  0.46875 1 0  1.40625 0 0  7.03125 1 0  0.3954638734376499 0.5975780249976004 0  6.495833333333334 0.4072265624999998 0  5.859375 0.25 0  4.905729166666666 0.26513671875 0  4.453125 0.25 0  3.531770833333333 0.73486328125 0  3.968229166666667 0.73486328125 0  2.594270833333333 0.73486328125 0  3.030729166666667 0.73486328125 0  6.328125 0.75 0  7.198958333333334 0.3125000000000002 0  7.198958333333334 0.6874999999999998 0  5.390625 0.25 0  0 0.25 0  2.109375 0.75 0  2.109375 0.25 0  1.51921323205749 0.3418883887525936 0  1.522346610178253 0.6811769608297746 0  5.375456746419271 0.75 0  4.921875 0.76513671875 0  4.437956746419271 0.75 0  3.984375 0.23486328125 0  3.500456746419271 0.25 0  2.578125 0.23486328125 0  3.046875 0.23486328125 0  5.874543253580729 0.75 0  6.642123189445656 0.6909095493086836 0  6.746354166666666 0.2391688368055553 0  0.3197109619185111 0.2850049285972083 0  6.328125 0 0  0.6313375889370429 0.2351325552547357 0  0 0.75 0  6.252283381534729 0.2693808819694041 0  0.234375 1 0  6.948437500000001 0.7543055555555555 0  0.5934018769555939 0.7694151657947577 0  1.858854166666667 0.75 0  1.858854166666667 0.25 0  1.640625 0 0  2.093229166666667 0.5 0  7.5 0.25 0  3.282227579752604 0.75 0  7.5 0.75 0  1.171875 0 0  1.303539853147731 0.2235426933121065 0  5.148177083333333 0.2575683593749998 0  2.351822916666667 0.742431640625 0  1.640625 1 0  4.202380413457425 0.7645435094236485 0  3.047822985053062 0.4701848030090332 0  2.577177014946938 0.4701848030090332 0  4.672792740482199 0.76513671875 0  4.922822985053062 0.5298151969909668 0  5.390593497949761 0.5156244924311331 0  5.610292740482199 0.76513671875 0  3.516602579752604 0.5 0  4.45496853898097 0.4865915990446593 0  5.85753146101903 0.4865915990446593 0  3.749511210123698 0.23486328125 0  3.983397420247396 0.4999999999999999 0  2.343497975411212 0.2346270081980111 0  4.219002024588788 0.2346270081980111 0  0.703125 0 0  2.8125 0.2343755075688669 0  3.046875 0 0  2.578125 0 0  3.515625 0 0  3.984375 0 0  4.453125 1 0  5.390625 1 0  2.109375 0 0  2.109375 1 0  5.625 0.2921402030705575 0  5.390625 0 0  7.265625 0 0  6.796875 0 0  6.328125 1 0  3.046875 1 0  2.578125 1 0  3.984375 1 0  3.515625 1 0  4.453125 0 0  4.921875 0 0  5.859375 0 0  0.703125 1 0  1.171875 1 0  7.265625 1 0  4.921875 1 0  5.859375 1 0  0.234375 0 0  6.796875 1 0  6.980310975276531 0.2285890127127066 0  5.149170481934885 0.772689292163473 0  3.274170481934884 0.2273107078365268 0  6.101334126790364 0.7722468376159667 0  4.678005340872584 0.3000799877067239 0  2.8125 0.6921051326382495 0  3.75 0.6921051326382495 0  0.3515624999999999 0.8134571721668546 0  0.4990405774417521 0.4070099317153735 0  0.1789273931360182 0.625 0  6.31239060814315 0.5298877111157968 0  6.456979773992304 0.1917956348713352 0  6.699870808919271 0.4406293402777773 0  1.337539480965883 0.7944303676599538 0  6.058675797563041 0.2019812164653516 0  0.8203125 0.1643029084422534 0  0.1480856513011711 0.375 0  1.090769294689562 0.1719186776982972 0  7.291088163206459 0.5 0  7.094502414936563 0.5197902199074071 0  0.6046212059042245 0.5730066483871106 0  1.707231580809486 0.6342709161352207 0  1.685961352504593 0.8193269193390785 0  1.374721602852827 0.4600373025865813 0  6.486415510043844 0.5916440776477192 0  1.5234375 0.1508863828685116 0  1.707925830421689 0.3657739208189008 0  0.1674513225045584 0.8278776664019765 0  7.138268756771176 0.1438183366439137 0  7.1484375 0.8616388888888887 0  7.328562530764119 0.819498462930605 0  4.101073710123698 0.3678637200736647 0  1.693878467219965 0.1911955120941053 0  1.577566745468488 0.5110082404081502 0  6.6796875 0.8653871806883484 0  6.498039504430512 0.825568433346395 0  0.7562556668576472 0.8333197949571929 0  4.101045914668806 0.6255195807449272 0  5.030745188395182 0.382829047309028 0  2.476364945868651 0.6095868094762166 0  2.729359843907322 0.8460525663191247 0  2.9296875 0.8740763101564099 0  3.163518307559356 0.6254622797994247 0  3.666859843907322 0.8460525663191247 0  3.8671875 0.8740763101564099 0  4.8046875 0.12592368984359 0  3.14936031382311 0.8606990583876851 0  2.4609375 0.8747622921397776 0  5.023140791101972 0.1392266772452574 0  0 0.125 0  0.1759922923594607 0.1727589856739889 0  4.5703125 0.125 0  7.327755777818006 0.1766156770456191 0  5.5078125 0.125 0  5.719712725029036 0.1460701015352787 0  4.327848962028002 0.3674169956512513 0  5.982681121544351 0.3692637923021713 0  3.398926289876302 0.6245417594909667 0  5.281756792511996 0.3827993367299961 0  2.226822645963271 0.6252438868405666 0  2.234390064317166 0.8676616584526566 0  5.2734375 0.125 0  1.96796875 0.382568359375 0  2.234651037971999 0.3674169956512511 0  1.984114583333333 0.132568359375 0  1.9921875 0.875 0  1.984114583333333 0.632568359375 0  5.748733794462357 0.8678269127183313 0  3.3984375 0.875456329184688 0  1.512925924995415 0.8582958012121853 0  1.359299372802969 0.6275861864990343 0  4.810521420483513 0.4041767793635395 0  0.2996213306116602 0.455339710363317 0  5.999933717403708 0.6388425470751088 0  5.250033449003657 0.6388713364551682 0  3.631676045992918 0.3525406652400928 0  4.3359375 0.8816499670325881 0  4.343577437052484 0.6116511299909198 0  3.375033449003656 0.3611286635448316 0  5.763152151652243 0.6249404690537395 0  4.549347848347757 0.6249404690537396 0  5.5004588702411 0.6403667365776566 0  5.976118394847484 0.8816230218343086 0  5.054722486865804 0.6338007028640954 0  3.164542163493752 0.3520519332736524 0  2.445407482032355 0.3672168403687257 0  4.8046875 0.882568359375 0  4.1015625 0.117431640625 0  2.4609375 0.117431640625 0  2.695556894938151 0.3520510350344335 0  2.929443105061849 0.3520510350344335 0  3.881979231817319 0.3670559016511187 0  3.8671875 0.117431640625 0  4.805389247695744 0.6470047893641744 0  3.399370721942191 0.1184066543556767 0  5.274370721942192 0.881593345644323 0  3.618253274934649 0.1316869186284249 0  2.6953125 0.1171877537844335 0  2.9296875 0.1171877537844335 0  2.21873344389451 0.125 0  4.3359375 0.1171877625080073 0  0.6659898565672709 0.3986593551313873 0  7.363359022954956 0.3481046411219251 0  7.363359022954956 0.6518953588780749 0  5.487719392831826 0.3828237631077121 0  2.695054578344725 0.5809158475691247 0  2.944553877887707 0.5964065668438148 0  0.3515625 0.1201898858097106 0  5.5078125 1 0  4.5703125 1 0  5.031746201297604 0.882568359375 0  3.1640625 0 0  6.2109375 1 0  6.186845385763124 0.6336356480571081 0  4.1015625 1 0  6.810399074069772 0.6495574751396682 0  0.4740615253480797 0.2509287743856873 0  7.052064303830151 0.3684417917792242 0  6.195177069665382 0.1216488332168849 0  5.72300154718324 0.4112068202852788 0  3.879157465495092 0.6111892850691246 0  3.645760045247695 0.5809158475691247 0  6.868257400485771 0.3427840810237202 0  6.612030892260864 0.1521752713064389 0  6.615666885941117 0.3151079644097221 0  4.04296875 0.8633718902669071 0  1.183031453639096 0.8486801864185936 0  6.9140625 0 0  6.859079526500421 0.1398292786950638 0  6.808232443325651 0.7957411753922057 0  6.9140625 1 0  4.544955211100143 0.3675874343205077 0  1.0546875 1 0  6.122060236165557 0.3316791557072867 0  0.5859375 0 0  5.9765625 0 0  5.44921875 0.870984788733638 0  4.51171875 0.870984788733638 0  0.7608354256382215 0.2931261274224557 0  6.386875332239937 0.3156583003094978 0  6.985654756850997 0.6147408423643147 0  6.223797257919172 0.8535621912121121 0  5.936822413218736 0.1338376546337823 0  6.23933008800134 0.4095573603773768 0  0.5414022462152697 0.1305482677949959 0  6.331360438104348 0.1370086318183389 0  0.956404929269873 0.1374266563647954 0  1.2890625 1 0  0.691305981127761 0.6764829884281737 0  3.531251607241209 0.8678916320952239 0  2.59787442813022 
[...]
<PointData  Vectors="f_71627"> 
<DataArray  type="Float64"  Name="f_71627"  NumberOfComponents="3" format="ascii">0.0000000000000000e+00 0.0000000000000000e+00 0.0000000000000000e+00  0.0000000000000000e+00 0.0000000000000000e+00 0.0000000000000000e+00  0.0000000000000000e+00 0.0000000000000000e+00 0.0000000000000000e+00  0.0000000000000000e+00 0.0000000000000000e+00 0.0000000000000000e+00  0.0000000000000000e+00 0.0000000000000000e+00 0.0000000000000000e+00  0.0000000000000000e+00 0.0000000000000000e+00 0.0000000000000000e+00  0.0000000000000000e+00 0.0000000000000000e+00 0.0000000000000000e+00  0.0000000000000000e+00 0.0000000000000000e+00 0.0000000000000000e+00  0.0000000000000000e+00 0.0000000000000000e+00 0.0000000000000000e+00  0.0000000000000000e+00 0.0000000000000000e+00 0.0000000000000000e+00  0.0000000000000000e+00 0.0000000000000000e+00 0.0000000000000000e+00  0.0000000000000000e+00 0.0000000000000000e+00 0.0000000000000000e+00  0.0000000000000000e+00 0.0000000000000000e+00 0.0000000000000000e+00  0.0000000000000000e+00 0.0000000000000000e+00 0.0000000000000000e+00  0.0000000000000000e+00 0.0000000000000000e+00 0.0000000000000000e+00  0.0000000000000000e+00 0.0000000000000000e+00 0.0000000000000000e+00  0.0000000000000000e+00 0.0000000000000000e+00 0.0000000000000000e+00  0.0000000000000000e+00 0.0000000000000000e+00 0.0000000000000000e+00  0.0000000000000000e+00 0.0000000000000000e+00 0.0000000000000000e+00  0.0000000000000000e+00 0.0000000000000000e+00 0.0000000000000000e+00  0.0000000000000000e+00 0.0000000000000000e+00 0.0000000000000000e+00  0.0000000000000000e+00 0.0000000000000000e+00 0.0000000000000000e+00  0.0000000000000000e+00 0.0000000000000000e+00 0.0000000000000000e+00  0.0000000000000000e+00 0.0000000000000000e+00 0.0000000000000000e+00  0.0000000000000000e+00 0.0000000000000000e+00 0.0000000000000000e+00  0.0000000000000000e+00 0.0000000000000000e+00 0.0000000000000000e+00  0.0000000000000000e+00 0.0000000000000000e+00 0.0000000000000000e+00  0.0000000000000000e+00 0.0000000000000000e+00 0.0000000000000000e+00  0.0000000000000000e+00 0.0000000000000000e+00 0.0000000000000000e+00  0.0000000000000000e+00 0.0000000000000000e+00 0.0000000000000000e+00  0.0000000000000000e+00 0.0000000000000000e+00 0.0000000000000000e+00  0.0000000000000000e+00 0.0000000000000000e+00 0.0000000000000000e+00  0.0000000000000000e+00 0.0000000000000000e+00 0.0000000000000000e+00  0.0000000000000000e+00 0.0000000000000000e+00 0.0000000000000000e+00  0.0000000000000000e+00 0.0000000000000000e+00 0.0000000000000000e+00  0.0000000000000000e+00 0.0000000000000000e+00 0.0000000000000000e+00  0.0000000000000000e+00 0.0000000000000000e+00 0.0000000000000000e+00  0.0000000000000000e+00 0.0000000000000000e+00 0.0000000000000000e+00  0.0000000000000000e+00 0.0000000000000000e+00 0.0000000000000000e+00  0.0000000000000000e+00 0.0000000000000000e+00 0.0000000000000000e+00  0.0000000000000000e+00 0.0000000000000000e+00 0.0000000000000000e+00  0.0000000000000000e+00 0.0000000000000000e+00 0.0000000000000000e+00  0.0000000000000000e+00 0.0000000000000000e+00 0.0000000000000000e+00  0.0000000000000000e+00 0.0000000000000000e+00 0.0000000000000000e+00  0.0000000000000000e+00 0.0000000000000000e+00 0.0000000000000000e+00  0.0000000000000000e+00 0.0000000000000000e+00 0.0000000000000000e+00  0.0000000000000000e+00 0.0000000000000000e+00 0.0000000000000000e+00  0.0000000000000000e+00 0.0000000000000000e+00 0.0000000000000000e+00  0.0000000000000000e+00 0.0000000000000000e+00 0.0000000000000000e+00  0.0000000000000000e+00 0.0000000000000000e+00 0.0000000000000000e+00  0.0000000000000000e+00 0.0000000000000000e+00 0.0000000000000000e+00  0.0000000000000000e+00 0.0000000000000000e+00 0.0000000000000000e+00  0.0000000000000000e+00 0.0000000000000000e+00 0.0000000000000000e+00  0.0000000000000000e+00 0.0000000000000000e+00 0.0000000000000000e+00  0.0000000000000000e+00 0.0000000000000000e+00 0.0000000000000000e+00  0.0000000000000000e+00 0.0000000000000000e+00 0.0000000000000000e+00  0.0000000000000000e+00 0.0000000000000000e+00 0.0000000000000000e+00  0.0000000000000000e+00 0.0000000000000000e+00 0.0000000000000000e+00  0.0000000000000000e+00 0.0000000000000000e+00 0.0000000000000000e+00  1.6204663431415764e+00 -5.2524216526873713e-01 0.0000000000000000e+00  1.7162974784020513e+00 9.0395250378678416e-01 0.0000000000000000e+00  1.4907011798051597e+00 4.9854021943961946e-01 0.0000000000000000e+00  1.5057844410471750e+00 1.2654870509573335e+00 0.0000000000000000e+00  1.5960333921563343e+00 -6.9545212937792911e-01 0.0000000000000000e+00  1.5000002340047494e+00 0.0000000000000000e+00 0.0000000000000000e+00  1.2436379467281897e+00 1.0118286496420850e-01 0.0000000000000000e+00  1.2422606806416978e+00 -1.1545265734243093e+00 0.0000000000000000e+00  1.5000002340047494e+00 0.0000000000000000e+00 0.0000000000000000e+00  0.0000000000000000e+00 0.0000000000000000e+00 0.0000000000000000e+00  1.5776922540747300e+00 6.1822759585064468e-01 0.0000000000000000e+00  0.0000000000000000e+00 0.0000000000000000e+00 0.0000000000000000e+00  0.0000000000000000e+00 0.0000000000000000e+00 0.0000000000000000e+00  1.8579625140840852e+00 -1.0351565380845718e+00 0.0000000000000000e+00  0.0000000000000000e+00 0.0000000000000000e+00 0.0000000000000000e+00  0.0000000000000000e+00 0.0000000000000000e+00 0.0000000000000000e+00  0.0000000000000000e+00 0.0000000000000000e+00 0.0000000000000000e+00  1.5712832063536639e+00 -1.1250708946968626e+00 0.0000000000000000e+00  0.0000000000000000e+00 0.0000000000000000e+00 0.0000000000000000e+00  0.0000000000000000e+00 0.0000000000000000e+00 0.0000000000000000e+00  1.6281213627632314e+00 1.4542802727396748e-01 0.0000000000000000e+00  0.0000000000000000e+00 0.0000000000000000e+00 0.0000000000000000e+00  0.0000000000000000e+00 0.0000000000000000e+00 0.0000000000000000e+00  0.0000000000000000e+00 0.0000000000000000e+00 0.0000000000000000e+00  0.0000000000000000e+00 0.0000000000000000e+00 0.0000000000000000e+00  0.0000000000000000e+00 0.0000000000000000e+00 0.0000000000000000e+00  0.0000000000000000e+00 0.0000000000000000e+00 0.0000000000000000e+00  0.0000000000000000e+00 0.0000000000000000e+00 0.0000000000000000e+00  1.3668181910368404e+00 1.4730869810300758e-02 0.0000000000000000e+00  1.8427716590344152e+00 3.6727487004898801e-01 0.0000000000000000e+00  9.1633503975416120e-01 -4.7990490750724812e-01 0.0000000000000000e+00  1.2086224254477096e+00 -7.0088741088257067e-01 0.0000000000000000e+00  1.1242888335574859e+00 4.3954735270630135e-01 0.0000000000000000e+00  1.0048832231559341e+00 -6.4526233644058052e-03 0.0000000000000000e+00  2.1643235938015234e-01 -5.2371077537754207e-01 0.0000000000000000e+00  1.0557875533346397e+00 -3.3112256486008307e-01 0.0000000000000000e+00  -8.9512679012979268e-02 -5.0517736385222368e-02 0.0000000000000000e+00  6.1523273960196934e-01 -4.4215921002746517e-02 0.0000000000000000e+00  1.1190914287125968e+00 -6.2020266216702902e-01 0.0000000000000000e+00  8.0141358868173529e-01 -6.7920623705751304e-01 0.0000000000000000e+00  1.3841991348499252e+00 4.6263769956287970e-01 0.0000000000000000e+00  1.1250001755035621e+00 0.0000000000000000e+00 0.0000000000000000e+00  1.4516430235273217e-01 7.1295474638049272e-01 0.0000000000000000e+00  1.9563818637517942e+00 9.0185549505864271e-01 0.0000000000000000e+00  2.8002329197301376e-02 5.1410806508302886e-01 0.0000000000000000e+00  2.2289641066941641e+00 -1.2814119363816177e+00 0.0000000000000000e+00  5.0695850731891967e-01 8.0755550031342616e-01 0.0000000000000000e+00  7.8285247581234130e-01 -6.4945613302404281e-01 0.0000000000000000e+00  7.1014563349115267e-01 5.5457929275332840e-01 0.0000000000000000e+00  1.7924988348014865e+00 -3.5536736328380797e-01 0.0000000000000000e+00  8.4122382554605035e-01 3.5479091142540484e-02 0.0000000000000000e+00  1.4462832522956828e+00 1.7768288466680290e-01 0.0000000000000000e+00  1.6592375942251316e+00 -1.2739738191006381e-01 0.0000000000000000e+00  1.4455824228180270e+00 -4.1776867383810978e-01 0.0000000000000000e+00  9.9161038742939767e-01 9.2853165781373270e-01 0.0000000000000000e+00  9.3670667245440675e-01 2.2979750396837731e-01 0.0000000000000000e+00  1.2243523261279727e+00 -5.6746905458216035e-02 0.0000000000000000e+00  0.0000000000000000e+00 0.0000000000000000e+00 0.0000000000000000e+00  1.2032750523439064e+00 -2.7037356540923985e-01 0.0000000000000000e+00  1.1250001755035621e+00 0.0000000000000000e+00 0.0000000000000000e+00  1.5508670228175174e+00 -4.1620762804888567e-01 0.0000000000000000e+00  0.0000000000000000e+00 0.0000000000000000e+00 0.0000000000000000e+00  1.3731262064142284e+00 -8.8812087307382798e-02 0.0000000000000000e+00  1.0845468923185886e+00 2.4858887332570229e-01 0.0000000000000000e+00  3.7161985559522626e-01 -2.5766903993164175e-01 0.0000000000000000e+00  2.0824105048382378e+00 -7.3155268348624694e-02 0.0000000000000000e+00  0.0000000000000000e+00 0.0000000000000000e+00 0.0000000000000000e+00  1.5336827023858624e+00 1.4270054573376645e+00 0.0000000000000000e+00  1.1250001755035621e+00 0.0000000000000000e+00 0.0000000000000000e+00  3.9968714933522975e-01 9.6789916932169373e-01 0.0000000000000000e+00  1.1250001755035621e+00 0.0000000000000000e+00 0.0000000000000000e+00  0.0000000000000000e+00 0.0000000000000000e+00 0.0000000000000000e+00  1.8669612558242037e+00 3.0484146473559715e-01 0.0000000000000000e+00  1.6874310899699381e+00 -2.4563309731663827e-01 0.0000000000000000e+00  1.0682969031036844e+00 2.1856916936768417e-01 0.0000000000000000e+00  0.0000000000000000e+00 0.0000000000000000e+00 0.0000000000000000e+00  2.0514475210400834e-01 6.0878576511481575e-01 0.0000000000000000e+00  2.1797171365489203e+00 -1.9404110340495781e-01 0.0000000000000000e+00  1.5499945634647800e+00 -3.3846994288427884e-01 0.0000000000000000e+00  1.2061755127108764e+00 8.5800270466820389e-03 0.0000000000000000e+00  1.7768961716377005e+00 -1.0604910106355041e+00 0.0000000000000000e+00  1.7536911604554433e+00 1.0397168191487609e+00 0.0000000000000000e+00  1.2108351187549249e+00 3.0379192288756840e-01 0.0000000000000000e+00  1.8585718017656481e+00 4.7335019780313170e-01 0.0000000000000000e+00  1.6570875526197930e+00 7.3910099604647994e-01 0.0000000000000000e+00  1.5610367352559773e+00 -5.7345753869065164e-01 0.0000000000000000e+00  1.1571547846258998e+00 -7.6950203446045962e-01 0.0000000000000000e+00  1.8714343560803790e+00 -8.1128016649464785e-01 0.0000000000000000e+00  9.1131035188605558e-01 5.7216215246619455e-02 0.0000000000000000e+00  1.7454967819349076e+00 3.3214169156956264e-01 0.0000000000000000e+00  0.0000000000000000e+00 0.0000000000000000e+00 0.0000000000000000e+00  1.6337181002339272e+00 -8.4540702464306117e-01 0.0000000000000000e+00  0.0000000000000000e+00 0.0000000000000000e+00 0.0000000000000000e+00  0.0000000000000000e+00 0.0000000000000000e+00 0.0000000000000000e+00  0.0000000000000000e+00 0.0000000000000000e+00 0.0000000000000000e+00  0.0000000000000000e+00 0.0000000000000000e+00 0.0000000000000000e+00  0.0000000000000000e+00 0.0000000000000000e+00 0.0000000000000000e+00  0.0000000000000000e+00 0.0000000000000000e+00 0.0000000000000000e+00  0.0000000000000000e+00 0.0000000000000000e+00 0.0000000000000000e+00  0.0000000000000000e+00 0.0000000000000000e+00 0.0000000000000000e+00  1.1439343904905261e+00 5.7849326916432664e-01 0.0000000000000000e+00  0.0000000000000000e+00 0.0000000000000000e+00 0.0000000000000000e+00  0.0000000000000000e+00 0.0000000000000000e+00 0.0000000000000000e+00  0.0000000000000000e+00 0.0000000000000000e+00 0.0000000000000000e+00  0.0000000000000000e+00 0.0000000000000000e+00 0.0000000000000000e+00  0.0000000000000000e+00 0.0000000000000000e+00 0.0000000000000000e+00  0.0000000000000000e+00 0.0000000000000000e+00 0.0000000000000000e+00  0.0000000000000000e+00 0.0000000000000000e+00 0.0000000000000000e+00  0.0000000000000000e+00 0.0000000000000000e+00 0.0000000000000000e+00  0.0000000000000000e+00 0.0000000000000000e+00 0.0000000000000000e+00  0.0000000000000000e+00 0.0000000000000000e+00 0.0000000000000000e+00  0.0000000000000000e+00 0.0000000000000000e+00 0.0000000000000000e+00  0.0000000000000000e+00 0.0000000000000000e+00 0.0000000000000000e+00  0.0000000000000000e+00 0.0000000000000000e+00 0.0000000000000000e+00  0.0000000000000000e+00 0.0000000000000000e+00 0.0000000000000000e+00  0.0000000000000000e+00 0.0000000000000000e+00 0.0000000000000000e+00  0.0000000000000000e+00 0.0000000000000000e+00 0.0000000000000000e+00  0.0000000000000000e+00 0.0000000000000000e+00 0.0000000000000000e+00  0.0000000000000000e+00 0.0000000000000000e+00 0.0000000000000000e+00  7.1851788476818734e-01 1.6293130624976924e-02 0.0000000000000000e+00  3.5709935946395072e-01 -4.6176650869024567e-02 0.0000000000000000e+00  1.5829284171922728e+00 7.2434111925511913e-01 0.0000000000000000e+00  7.6199721564935341e-01 -6.5191105455104903e-01 0.0000000000000000e+00  1.2377298516004855e+00 1.4694309611895789e-01 0.0000000000000000e+00  7.1909018684708226e-01 -8.4738054084265768e-01 0.0000000000000000e+00  6.9662548737201457e-01 -9.4874873220082578e-01 0.0000000000000000e+00  9.1983657544653707e-01 4.7245325015786585e-02 0.0000000000000000e+00  1.3426574300377432e+00 -1.1872372228768512e-01 0.0000000000000000e+00  1.3935392226994754e+00 -4.0156846938827996e-03 0.0000000000000000e+00  1.6725260804056059e+00 -4.5652245602135250e-01 0.0000000000000000e+00  1.3222705787276259e+00 5.3345655838661306e-02 0.0000000000000000e+00  1.5616109434182825e+00 7.9055650429193836e-01 0.0000000000000000e+00  2.2820535821712760e+00 -4.2749629444974840e-01 0.0000000000000000e+00  9.5360291171773759e-01 -4.2307200938299538e-01 0.0000000000000000e+00  1.3667221647517400e+00 -3.1563060671596677e-01 0.0000000000000000e+00  1.4035062294474243e+00 -2.2798380633300142e-02 0.0000000000000000e+00  1.8489764355524851e+00 -5.4016378482260992e-02 0.0000000000000000e+00  1.1965716603750334e+00 -8.1322464319694654e-01 0.0000000000000000e+00  1.4468700136773673e+00 -8.1069242631530114e-01 0.0000000000000000e+00  1.1544981131647238e+00 7.5593301236566990e-02 0.0000000000000000e+00  1.4556137747492197e+00 -1.2669145341567605e+00 0.0000000000000000e+00  8.9799991093468545e-01 -4.8757993901782609e-01 0.0000000000000000e+00  -1.0607664417978655e+00 1.2562215306441880e+00 0.0000000000000000e+00  1.3749463078002147e+00 3.9173237947273037e-01 0.0000000000000000e+00  1.4376810486666540e+00 -3.3225899711598105e-03 0.0000000000000000e+00  7.9405209603549276e-01 -9.9509859089381436e-01 0.0000000000000000e+00  8.5529190742927208e-01 5.9854043236288058e-03 0.0000000000000000e+00  3.5100468255962808e-01 -3.6898976645111398e-01 0.0000000000000000e+00  5.6042881908273678e-01 -2.0163445237499272e-01 0.0000000000000000e+00  -4.6084086168483186e-03 -1.3886854723237851e-01 0.0000000000000000e+00  2.2704111972726482e+00 1.7203771979550722e-01 0.0000000000000000e+00  1.7616806176495907e+00 -2.5839741458714721e-01 0.0000000000000000e+00  7.9667044387887531e-01 -7.4549119027988864e-01 0.0000000000000000e+00  5.9284301771938541e-01 3.9702558867756355e-01 0.0000000000000000e+00  2.3703154462216069e-01 4.2479349604502337e-01 0.0000000000000000e+00  1.2352841101240624e+00 4.4445092360463700e-01 0.0000000000000000e+00  1.1134656848787317e+00 4.5709043613477590e-01 0.0000000000000000e+00  1.7321824139768647e+00 -9.8513530244686076e-01 0.0000000000000000e+00  1.3729773904938887e+00 -7.6684490890194704e-02 0.0000000000000000e+00  3.4122591188753115e-01 -3.7865210070305849e-01 0.0000000000000000e+00  -1.2289224439941589e-01 -1.4915550654546833e-01 0.0000000000000000e+00  5.5131636537816697e-01 9.0839705312014796e-01 0.0000000000000000e+00  9.2254246896150083e-01 -2.4282957378479303e-01 0.0000000000000000e+00  1.8207821822029563e-01 -3.0888698598952602e-01 0.0000000000000000e+00  2.2546709471118484e-01 -1.6346038046845207e-01 0.0000000000000000e+00  -2.9782464862827776e-02 2.7650155095269380e-01 0.0000000000000000e+00  7.6174416936739964e-01 9.1237741157295885e-03 0.0000000000000000e+00  8.6304057382059407e-01 -4.4244593760334683e-01 0.0000000000000000e+00  6.5625010237707793e-01 0.0000000000000000e+00 0.0000000000000000e+00  8.6288148629978079e-01 -2.3341986435975223e-02 0.0000000000000000e+00  4.9353653736655273e-01 9.7371076661846523e-02 0.0000000000000000e+00  1.4896962348955212e-01 -3.7827831568371367e-01 0.0000000000000000e+00  7.0288864521980088e-01 2.4129693720885395e-01 0.0000000000000000e+00  2.4941988076225516e-01 3.9992934148184965e-02 0.0000000000000000e+00  1.8100778630720868e+00 7.6825304232607716e-01 0.0000000000000000e+00  1.4495663097722686e+00 -7.1322793277258945e-01 0.0000000000000000e+00  9.3438924160417569e-01 9.0315752614821265e-01 0.0000000000000000e+00  1.9774384599198285e+00 4.2748051342194782e-01 0.0000000000000000e+00  1.0166525772406358e+00 1.0217364304530276e+00 0.0000000000000000e+00  8.5930029812133479e-01 1.2716133737026777e-01 0.0000000000000000e+00  1.2477890763081192e+00 9.3687099514326744e-02 0.0000000000000000e+00  1.9792779182043352e+00 2.4925369771623681e-02 0.0000000000000000e+00  1.8648650762039649e+00 8.6789749258220894e-01 0.0000000000000000e+00  1.4865829041607128e+00 3.0044508801760272e-01 0.0000000000000000e+00  1.8891825391297534e-01 1.3347648824569028e-01 0.0000000000000000e+00  4.8371120172050008e-01 1.5730108187643119e-02 0.0000000000000000e+00  1.2065126397165995e+00 -1.3750714397907876e-01 0.0000000000000000e+00  7.5701453300042376e-01 3.5473774344034720e-01 0.0000000000000000e+00  1.5039858781803110e+00 -6.5666582435367393e-01 0.0000000000000000e+00  8.0920188791532943e-01 6.2537637670632695e-01 0.0000000000000000e+00  1.6827158672751208e+00 -4.7477464929407853e-01 0.0000000000000000e+00  1.4537236715978135e+00 -3.7614513072228191e-02 0.0000000000000000e+00  1.3019290681841471e+00 -6.9055190768688057e-01 0.0000000000000000e+00  1.1689461248644912e+00 5.2127375587092095e-01 0.0000000000000000e+00  1.3053372653909225e+00 -4.3460643182694070e-01 0.0000000000000000e+00  1.8902438451868603e-01 3.0841713545828697e-01 0.0000000000000000e+00  1.3349729933674308e+00 9.1056910115795331e-01 0.0000000000000000e+00  1.7059868410794830e+00 1.3533961091353692e+00 0.0000000000000000e+00  1.5499396636524960e+00 -6.1569263149317197e-02 0.0000000000000000e+00  1.4375268095695466e+00 5.2773844320378716e-01 0.0000000000000000e+00  1.2794584538790263e+00 1.1999714221837854e+00 0.0000000000000000e+00  7.7713502761056164e-01 -2.2754204160481462e-01 0.0000000000000000e+00  1.1477675095191546e+00 -9.5156504303635492e-01 0.0000000000000000e+00  2.0991944932227931e+00 4.5521483881966929e-01 0.0000000000000000e+00  1.3850056509404700e+00 6.7648049587374345e-02 0.0000000000000000e+00  8.2076147506998220e-01 -1.1785443908788101e-01 0.0000000000000000e+00  1.2407331800991881e+00 1.9165097775938852e-01 0.0000000000000000e+00  6.9874511757686483e-03 2.4924157159684487e-01 0.0000000000000000e+00  1.7790026097626199e+00 -5.8250887002491036e-01 0.0000000000000000e+00  1.9987514002526368e+00 -6.8985344300513840e-01 0.0000000000000000e+00  1.7897073272108772e+00 -7.4078482875255447e-01 0.0000000000000000e+00  9.8512959328259608e-01 -1.8026508575469849e-01 0.0000000000000000e+00  1.5348280462724047e+00 -5.5176010842853274e-01 0.0000000000000000e+00  6.5772765498650809e-01 9.4562762767607944e-02 0.0000000000000000e+00  -9.5723223078621800e-02 2.7367783772535825e-01 0.0000000000000000e+00  4.3252361225161234e-01 -9.1709613526350792e-02 0.0000000000000000e+00  4.1102141848232082e-01 -2.8772526354402744e-01 0.0000000000000000e+00  9.2379751970191393e-01 -6.1974675506796961e-01 0.0000000000000000e+00  6.1359160225069886e-01 4.6298072301320839e-02 0.0000000000000000e+00  8.4699027299390139e-01 1.5509379569630327e-01 0.0000000000000000e+00  1.2038854671121983e+00 -3.6417020747040818e-01 0.0000000000000000e+00  1.2635027725789698e+00 -6.9763235918545796e-01 0.0000000000000000e+00  8.2423188061637065e-01 -2.5779328385544342e-01 0.0000000000000000e+00  1.5502180026423524e+00 9.0498791592554406e-01 0.0000