<?xml version="1.0"?>
<VTKFile type="UnstructuredGrid"  version="0.1"  >
<UnstructuredGrid>
<Piece  NumberOfPoints="4269" NumberOfCells="8234">
<Points>
<DataArray  type="Float64"  NumberOfComponents="3"  format="ascii">0 1 0  0 0 0  7.5 0 0  7.5 1 0  1.197537668119028 0.5812868930080463 0  1.2 0.55 0  1.197537668119028 0.5187131069919538 0  1.190211303259031 0.4881966011250105 0  1.178201304837674 0.4592019000520907 0  1.161803398874989 0.4324429495415054 0  1.141421356237309 0.4085786437626905 0  1.117557050458495 0.3881966011250105 0  1.090798099947909 0.3717986951623264 0  1.06180339887499 0.3597886967409693 0  1.031286893008046 0.3524623318809725 0  1 0.35 0  0.9687131069919538 0.3524623318809725 0  0.9381966011250105 0.3597886967409694 0  0.9092019000520906 0.3717986951623264 0  0.8824429495415054 0.3881966011250105 0  0.8585786437626904 0.4085786437626905 0  0.8381966011250105 0.4324429495415054 0  0.8217986951623264 0.4592019000520907 0  0.8097886967409692 0.4881966011250107 0  0.8024623318809725 0.5187131069919539 0  0.8 0.55 0  0.8024623318809725 0.5812868930080463 0  0.8097886967409693 0.6118033988749896 0  0.8217986951623264 0.6407980999479095 0  0.8381966011250105 0.6675570504584947 0  0.8585786437626906 0.6914213562373096 0  0.8824429495415054 0.7118033988749896 0  0.9092019000520907 0.7282013048376736 0  0.9381966011250106 0.7402113032590307 0  0.9687131069919539 0.7475376681190276 0  1 0.75 0  1.031286893008046 0.7475376681190276 0  1.06180339887499 0.7402113032590307 0  1.090798099947909 0.7282013048376736 0  1.117557050458495 0.7118033988749896 0  1.141421356237309 0.6914213562373095 0  1.161803398874989 0.6675570504584947 0  1.178201304837674 0.6407980999479094 0  1.190211303259031 0.6118033988749896 0  3.75 0 0  3.75 1 0  1.875 0 0  1.875 1 0  0.9375 0 0  0.9375 1 0  1.40625 1 0  5.625 1 0  5.625 0 0  2.8125 1 0  2.8125 0 0  4.6875 0 0  4.6875 1 0  6.5625 0 0  6.5625 1 0  5.15625 0.5 0  4.21875 0.5 0  2.34375 0.5 0  3.28125 0.5 0  6.09375 0.5 0  7.5 0.5 0  6.897916666666666 0.5 0  1.842708333333333 0.5 0  0 0.5 0  0.46875 0 0  5.625 0.5302734375 0  7.03125 0 0  6.09375 1 0  2.8125 0.4697265625 0  3.28125 0 0  2.34375 1 0  2.34375 0 0  3.75 0.4697265625 0  4.21875 0 0  4.21875 1 0  4.6875 0.5302734375 0  3.28125 1 0  5.15625 0 0  6.09375 0 0  5.15625 1 0  0.46875 1 0  1.40625 0 0  7.03125 1 0  0.3954638734376499 0.5975780249976004 0  6.495833333333334 0.4072265624999998 0  5.859375 0.25 0  4.905729166666666 0.26513671875 0  4.453125 0.25 0  3.531770833333333 0.73486328125 0  3.968229166666667 0.73486328125 0  2.594270833333333 0.73486328125 0  3.030729166666667 0.73486328125 0  6.328125 0.75 0  7.198958333333334 0.3125000000000002 0  7.198958333333334 0.6874999999999998 0  5.390625 0.25 0  0 0.25 0  2.109375 0.75 0  2.109375 0.25 0  1.51921323205749 0.3418883887525936 0  1.522346610178253 0.6811769608297746 0  5.375456746419271 0.75 0  4.921875 0.76513671875 0  4.437956746419271 0.75 0  3.984375 0.23486328125 0  3.500456746419271 0.25 0  2.578125 0.23486328125 0  3.046875 0.23486328125 0  5.874543253580729 0.75 0  6.642123189445656 0.6909095493086836 0  6.746354166666666 0.2391688368055553 0  0.3197109619185111 0.2850049285972083 0  6.328125 0 0  0.6313375889370429 0.2351325552547357 0  0 0.75 0  6.252283381534729 0.2693808819694041 0  0.234375 1 0  6.948437500000001 0.7543055555555555 0  0.5934018769555939 0.7694151657947577 0  1.858854166666667 0.75 0  1.858854166666667 0.25 0  1.640625 0 0  2.093229166666667 0.5 0  7.5 0.25 0  3.282227579752604 0.75 0  7.5 0.75 0  1.171875 0 0  1.303539853147731 0.2235426933121065 0  5.148177083333333 0.2575683593749998 0  2.351822916666667 0.742431640625 0  1.640625 1 0  4.202380413457425 0.7645435094236485 0  3.047822985053062 0.4701848030090332 0  2.577177014946938 0.4701848030090332 0  4.672792740482199 0.76513671875 0  4.922822985053062 0.5298151969909668 0  5.390593497949761 0.5156244924311331 0  5.610292740482199 0.76513671875 0  3.516602579752604 0.5 0  4.45496853898097 0.4865915990446593 0  5.85753146101903 0.4865915990446593 0  3.749511210123698 0.23486328125 0  3.983397420247396 0.4999999999999999 0  2.343497975411212 0.2346270081980111 0  4.219002024588788 0.2346270081980111 0  0.703125 0 0  2.8125 0.2343755075688669 0  3.046875 0 0  2.578125 0 0  3.515625 0 0  3.984375 0 0  4.453125 1 0  5.390625 1 0  2.109375 0 0  2.109375 1 0  5.625 0.2921402030705575 0  5.390625 0 0  7.265625 0 0  6.796875 0 0  6.328125 1 0  3.046875 1 0  2.578125 1 0  3.984375 1 0  3.515625 1 0  4.453125 0 0  4.921875 0 0  5.859375 0 0  0.703125 1 0  1.171875 1 0  7.265625 1 0  4.921875 1 0  5.859375 1 0  0.234375 0 0  6.796875 1 0  6.980310975276531 0.2285890127127066 0  5.149170481934885 0.772689292163473 0  3.274170481934884 0.2273107078365268 0  6.101334126790364 0.7722468376159667 0  4.678005340872584 0.3000799877067239 0  2.8125 0.6921051326382495 0  3.75 0.6921051326382495 0  0.3515624999999999 0.8134571721668546 0  0.4990405774417521 0.4070099317153735 0  0.1789273931360182 0.625 0  6.31239060814315 0.5298877111157968 0  6.456979773992304 0.1917956348713352 0  6.699870808919271 0.4406293402777773 0  1.337539480965883 0.7944303676599538 0  6.058675797563041 0.2019812164653516 0  0.8203125 0.1643029084422534 0  0.1480856513011711 0.375 0  1.090769294689562 0.1719186776982972 0  7.291088163206459 0.5 0  7.094502414936563 0.5197902199074071 0  0.6046212059042245 0.5730066483871106 0  1.707231580809486 0.6342709161352207 0  1.685961352504593 0.8193269193390785 0  1.374721602852827 0.4600373025865813 0  6.486415510043844 0.5916440776477192 0  1.5234375 0.1508863828685116 0  1.707925830421689 0.3657739208189008 0  0.1674513225045584 0.8278776664019765 0  7.138268756771176 0.1438183366439137 0  7.1484375 0.8616388888888887 0  7.328562530764119 0.819498462930605 0  4.101073710123698 0.3678637200736647 0  1.693878467219965 0.1911955120941053 0  1.577566745468488 0.5110082404081502 0  6.6796875 0.8653871806883484 0  6.498039504430512 0.825568433346395 0  0.7562556668576472 0.8333197949571929 0  4.101045914668806 0.6255195807449272 0  5.030745188395182 0.382829047309028 0  2.476364945868651 0.6095868094762166 0  2.729359843907322 0.8460525663191247 0  2.9296875 0.8740763101564099 0  3.163518307559356 0.6254622797994247 0  3.666859843907322 0.8460525663191247 0  3.8671875 0.8740763101564099 0  4.8046875 0.12592368984359 0  3.14936031382311 0.8606990583876851 0  2.4609375 0.8747622921397776 0  5.023140791101972 0.1392266772452574 0  0 0.125 0  0.1759922923594607 0.1727589856739889 0  4.5703125 0.125 0  7.327755777818006 0.1766156770456191 0  5.5078125 0.125 0  5.719712725029036 0.1460701015352787 0  4.327848962028002 0.3674169956512513 0  5.982681121544351 0.3692637923021713 0  3.398926289876302 0.6245417594909667 0  5.281756792511996 0.3827993367299961 0  2.226822645963271 0.6252438868405666 0  2.234390064317166 0.8676616584526566 0  5.2734375 0.125 0  1.96796875 0.382568359375 0  2.234651037971999 0.3674169956512511 0  1.984114583333333 0.132568359375 0  1.9921875 0.875 0  1.984114583333333 0.632568359375 0  5.748733794462357 0.8678269127183313 0  3.3984375 0.875456329184688 0  1.512925924995415 0.8582958012121853 0  1.359299372802969 0.6275861864990343 0  4.810521420483513 0.4041767793635395 0  0.2996213306116602 0.455339710363317 0  5.999933717403708 0.6388425470751088 0  5.250033449003657 0.6388713364551682 0  3.631676045992918 0.3525406652400928 0  4.3359375 0.8816499670325881 0  4.343577437052484 0.6116511299909198 0  3.375033449003656 0.3611286635448316 0  5.763152151652243 0.6249404690537395 0  4.549347848347757 0.6249404690537396 0  5.5004588702411 0.6403667365776566 0  5.976118394847484 0.8816230218343086 0  5.054722486865804 0.6338007028640954 0  3.164542163493752 0.3520519332736524 0  2.445407482032355 0.3672168403687257 0  4.8046875 0.882568359375 0  4.1015625 0.117431640625 0  2.4609375 0.117431640625 0  2.695556894938151 0.3520510350344335 0  2.929443105061849 0.3520510350344335 0  3.881979231817319 0.3670559016511187 0  3.8671875 0.117431640625 0  4.805389247695744 0.6470047893641744 0  3.399370721942191 0.1184066543556767 0  5.274370721942192 0.881593345644323 0  3.618253274934649 0.1316869186284249 0  2.6953125 0.1171877537844335 0  2.9296875 0.1171877537844335 0  2.21873344389451 0.125 0  4.3359375 0.1171877625080073 0  0.6659898565672709 0.3986593551313873 0  7.363359022954956 0.3481046411219251 0  7.363359022954956 0.6518953588780749 0  5.487719392831826 0.3828237631077121 0  2.695054578344725 0.5809158475691247 0  2.944553877887707 0.5964065668438148 0  0.3515625 0.1201898858097106 0  5.5078125 1 0  4.5703125 1 0  5.031746201297604 0.882568359375 0  3.1640625 0 0  6.2109375 1 0  6.186845385763124 0.6336356480571081 0  4.1015625 1 0  6.810399074069772 0.6495574751396682 0  0.4740615253480797 0.2509287743856873 0  7.052064303830151 0.3684417917792242 0  6.195177069665382 0.1216488332168849 0  5.72300154718324 0.4112068202852788 0  3.879157465495092 0.6111892850691246 0  3.645760045247695 0.5809158475691247 0  6.868257400485771 0.3427840810237202 0  6.612030892260864 0.1521752713064389 0  6.615666885941117 0.3151079644097221 0  4.04296875 0.8633718902669071 0  1.183031453639096 0.8486801864185936 0  6.9140625 0 0  6.859079526500421 0.1398292786950638 0  6.808232443325651 0.7957411753922057 0  6.9140625 1 0  4.544955211100143 0.3675874343205077 0  1.0546875 1 0  6.122060236165557 0.3316791557072867 0  0.5859375 0 0  5.9765625 0 0  5.44921875 0.870984788733638 0  4.51171875 0.870984788733638 0  0.7608354256382215 0.2931261274224557 0  6.386875332239937 0.3156583003094978 0  6.985654756850997 0.6147408423643147 0  6.223797257919172 0.8535621912121121 0  5.936822413218736 0.1338376546337823 0  6.23933008800134 0.4095573603773768 0  0.5414022462152697 0.1305482677949959 0  6.331360438104348 0.1370086318183389 0  0.956404929269873 0.1374266563647954 0  1.2890625 1 0  0.691305981127761 0.6764829884281737 0  3.531251607241209 0.8678916320952239 0  2.59787442813022 
[...]
<PointData  Vectors="f_71627"> 
<DataArray  type="Float64"  Name="f_71627"  NumberOfComponents="3" format="ascii">0.0000000000000000e+00 0.0000000000000000e+00 0.0000000000000000e+00  0.0000000000000000e+00 0.0000000000000000e+00 0.0000000000000000e+00  0.0000000000000000e+00 0.0000000000000000e+00 0.0000000000000000e+00  0.0000000000000000e+00 0.0000000000000000e+00 0.0000000000000000e+00  0.0000000000000000e+00 0.0000000000000000e+00 0.0000000000000000e+00  0.0000000000000000e+00 0.0000000000000000e+00 0.0000000000000000e+00  0.0000000000000000e+00 0.0000000000000000e+00 0.0000000000000000e+00  0.0000000000000000e+00 0.0000000000000000e+00 0.0000000000000000e+00  0.0000000000000000e+00 0.0000000000000000e+00 0.0000000000000000e+00  0.0000000000000000e+00 0.0000000000000000e+00 0.0000000000000000e+00  0.0000000000000000e+00 0.0000000000000000e+00 0.0000000000000000e+00  0.0000000000000000e+00 0.0000000000000000e+00 0.0000000000000000e+00  0.0000000000000000e+00 0.0000000000000000e+00 0.0000000000000000e+00  0.0000000000000000e+00 0.0000000000000000e+00 0.0000000000000000e+00  0.0000000000000000e+00 0.0000000000000000e+00 0.0000000000000000e+00  0.0000000000000000e+00 0.0000000000000000e+00 0.0000000000000000e+00  0.0000000000000000e+00 0.0000000000000000e+00 0.0000000000000000e+00  0.0000000000000000e+00 0.0000000000000000e+00 0.0000000000000000e+00  0.0000000000000000e+00 0.0000000000000000e+00 0.0000000000000000e+00  0.0000000000000000e+00 0.0000000000000000e+00 0.0000000000000000e+00  0.0000000000000000e+00 0.0000000000000000e+00 0.0000000000000000e+00  0.0000000000000000e+00 0.0000000000000000e+00 0.0000000000000000e+00  0.0000000000000000e+00 0.0000000000000000e+00 0.0000000000000000e+00  0.0000000000000000e+00 0.0000000000000000e+00 0.0000000000000000e+00  0.0000000000000000e+00 0.0000000000000000e+00 0.0000000000000000e+00  0.0000000000000000e+00 0.0000000000000000e+00 0.0000000000000000e+00  0.0000000000000000e+00 0.0000000000000000e+00 0.0000000000000000e+00  0.0000000000000000e+00 0.0000000000000000e+00 0.0000000000000000e+00  0.0000000000000000e+00 0.0000000000000000e+00 0.0000000000000000e+00  0.0000000000000000e+00 0.0000000000000000e+00 0.0000000000000000e+00  0.0000000000000000e+00 0.0000000000000000e+00 0.0000000000000000e+00  0.0000000000000000e+00 0.0000000000000000e+00 0.0000000000000000e+00  0.0000000000000000e+00 0.0000000000000000e+00 0.0000000000000000e+00  0.0000000000000000e+00 0.0000000000000000e+00 0.0000000000000000e+00  0.0000000000000000e+00 0.0000000000000000e+00 0.0000000000000000e+00  0.0000000000000000e+00 0.0000000000000000e+00 0.0000000000000000e+00  0.0000000000000000e+00 0.0000000000000000e+00 0.0000000000000000e+00  0.0000000000000000e+00 0.0000000000000000e+00 0.0000000000000000e+00  0.0000000000000000e+00 0.0000000000000000e+00 0.0000000000000000e+00  0.0000000000000000e+00 0.0000000000000000e+00 0.0000000000000000e+00  0.0000000000000000e+00 0.0000000000000000e+00 0.0000000000000000e+00  0.0000000000000000e+00 0.0000000000000000e+00 0.0000000000000000e+00  0.0000000000000000e+00 0.0000000000000000e+00 0.0000000000000000e+00  0.0000000000000000e+00 0.0000000000000000e+00 0.0000000000000000e+00  0.0000000000000000e+00 0.0000000000000000e+00 0.0000000000000000e+00  0.0000000000000000e+00 0.0000000000000000e+00 0.0000000000000000e+00  0.0000000000000000e+00 0.0000000000000000e+00 0.0000000000000000e+00  0.0000000000000000e+00 0.0000000000000000e+00 0.0000000000000000e+00  0.0000000000000000e+00 0.0000000000000000e+00 0.0000000000000000e+00  0.0000000000000000e+00 0.0000000000000000e+00 0.0000000000000000e+00  0.0000000000000000e+00 0.0000000000000000e+00 0.0000000000000000e+00  0.0000000000000000e+00 0.0000000000000000e+00 0.0000000000000000e+00  0.0000000000000000e+00 0.0000000000000000e+00 0.0000000000000000e+00  0.0000000000000000e+00 0.0000000000000000e+00 0.0000000000000000e+00  0.0000000000000000e+00 0.0000000000000000e+00 0.0000000000000000e+00  0.0000000000000000e+00 0.0000000000000000e+00 0.0000000000000000e+00  0.0000000000000000e+00 0.0000000000000000e+00 0.0000000000000000e+00  0.0000000000000000e+00 0.0000000000000000e+00 0.0000000000000000e+00  0.0000000000000000e+00 0.0000000000000000e+00 0.0000000000000000e+00  1.5182790728942235e+00 -8.5366427674854872e-01 0.0000000000000000e+00  1.8223510160080434e+00 8.7958958977337232e-01 0.0000000000000000e+00  1.4246423835609245e+00 1.0855293617948954e-01 0.0000000000000000e+00  1.3330443640907779e+00 8.6336029363967837e-01 0.0000000000000000e+00  1.5161030048285578e+00 1.5784803187934787e-01 0.0000000000000000e+00  1.5000002199849125e+00 0.0000000000000000e+00 0.0000000000000000e+00  1.2420768986558675e+00 9.6555206960016127e-02 0.0000000000000000e+00  1.1095389217633407e+00 7.6693608565953031e-02 0.0000000000000000e+00  1.5000002199849125e+00 0.0000000000000000e+00 0.0000000000000000e+00  0.0000000000000000e+00 0.0000000000000000e+00 0.0000000000000000e+00  1.2719612612648408e+00 1.1532150315878733e+00 0.0000000000000000e+00  0.0000000000000000e+00 0.0000000000000000e+00 0.0000000000000000e+00  0.0000000000000000e+00 0.0000000000000000e+00 0.0000000000000000e+00  1.9912143420622452e+00 -1.0574545587577560e+00 0.0000000000000000e+00  0.0000000000000000e+00 0.0000000000000000e+00 0.0000000000000000e+00  0.0000000000000000e+00 0.0000000000000000e+00 0.0000000000000000e+00  0.0000000000000000e+00 0.0000000000000000e+00 0.0000000000000000e+00  1.5075310131908930e+00 -1.2429891875343870e+00 0.0000000000000000e+00  0.0000000000000000e+00 0.0000000000000000e+00 0.0000000000000000e+00  0.0000000000000000e+00 0.0000000000000000e+00 0.0000000000000000e+00  1.6176988748414507e+00 1.8102532221900433e-02 0.0000000000000000e+00  0.0000000000000000e+00 0.0000000000000000e+00 0.0000000000000000e+00  0.0000000000000000e+00 0.0000000000000000e+00 0.0000000000000000e+00  0.0000000000000000e+00 0.0000000000000000e+00 0.0000000000000000e+00  0.0000000000000000e+00 0.0000000000000000e+00 0.0000000000000000e+00  0.0000000000000000e+00 0.0000000000000000e+00 0.0000000000000000e+00  0.0000000000000000e+00 0.0000000000000000e+00 0.0000000000000000e+00  0.0000000000000000e+00 0.0000000000000000e+00 0.0000000000000000e+00  1.3744071403599452e+00 4.8269769196367128e-02 0.0000000000000000e+00  1.3520383212834222e+00 -7.1075812003500027e-01 0.0000000000000000e+00  9.3734026243404522e-01 8.1065750148904950e-02 0.0000000000000000e+00  1.1834234979726801e+00 -6.9792125422832674e-01 0.0000000000000000e+00  1.0430258872199263e+00 4.1762999379731597e-01 0.0000000000000000e+00  1.2599705136880213e+00 -4.8771966136283168e-01 0.0000000000000000e+00  3.2742766414273355e-01 -2.8614666174657089e-01 0.0000000000000000e+00  1.0261101193982574e+00 -5.8217131678205891e-01 0.0000000000000000e+00  2.5394288546665655e-01 7.0737119112140989e-01 0.0000000000000000e+00  1.2963037502341492e+00 -1.9169994387876829e-01 0.0000000000000000e+00  9.8037694877633974e-01 7.1595292957519849e-03 0.0000000000000000e+00  1.0405776562837048e+00 2.0057040399183258e-02 0.0000000000000000e+00  1.9904928833863602e+00 3.7210823387227238e-01 0.0000000000000000e+00  1.1250001649886840e+00 0.0000000000000000e+00 0.0000000000000000e+00  7.8716897416138598e-01 5.4904567398529402e-01 0.0000000000000000e+00  1.3781132594584069e+00 2.6173744271715038e-01 0.0000000000000000e+00  -2.5442612654392707e-02 -3.5844727951433136e-01 0.0000000000000000e+00  1.7965772966894320e+00 -1.4599333052283794e+00 0.0000000000000000e+00  2.6361287908340858e-01 4.7390737721589654e-01 0.0000000000000000e+00  8.1993466267697779e-01 -5.4438031948365029e-01 0.0000000000000000e+00  8.8987497583166941e-01 4.2108524524852803e-01 0.0000000000000000e+00  1.7199661395402959e+00 -8.0014072175803461e-02 0.0000000000000000e+00  7.6656841831909384e-01 -3.2185979601538006e-01 0.0000000000000000e+00  1.2132687359386860e+00 -2.4684432692181218e-01 0.0000000000000000e+00  1.7927299923433497e+00 5.8191653151365863e-01 0.0000000000000000e+00  1.2950786879102110e+00 3.4263122154962584e-02 0.0000000000000000e+00  1.0239644959906267e+00 9.9210124848407910e-02 0.0000000000000000e+00  1.2799214571692279e+00 7.5874557630960446e-02 0.0000000000000000e+00  1.2124700314872550e+00 -3.2924472735867683e-02 0.0000000000000000e+00  0.0000000000000000e+00 0.0000000000000000e+00 0.0000000000000000e+00  1.1559563134900788e+00 -2.5148529758317723e-01 0.0000000000000000e+00  1.1250001649886840e+00 0.0000000000000000e+00 0.0000000000000000e+00  6.9598956758724195e-01 -2.9681847152824659e-01 0.0000000000000000e+00  0.0000000000000000e+00 0.0000000000000000e+00 0.0000000000000000e+00  1.2362857702062491e+00 3.7324021204409544e-02 0.0000000000000000e+00  1.1296535977948376e+00 2.7813225850421097e-01 0.0000000000000000e+00  -3.2917752892704960e-02 -1.4977729221083307e-02 0.0000000000000000e+00  2.3044374901578486e+00 7.8828136583372166e-01 0.0000000000000000e+00  0.0000000000000000e+00 0.0000000000000000e+00 0.0000000000000000e+00  1.4945147341093006e+00 1.1117719840571061e+00 0.0000000000000000e+00  1.1250001649886840e+00 0.0000000000000000e+00 0.0000000000000000e+00  1.0675764279733266e+00 9.9728615319547209e-01 0.0000000000000000e+00  1.1250001649886840e+00 0.0000000000000000e+00 0.0000000000000000e+00  0.0000000000000000e+00 0.0000000000000000e+00 0.0000000000000000e+00  1.9234932169471901e+00 5.8724795908904448e-02 0.0000000000000000e+00  1.7287834204141659e+00 -6.3828206599687987e-01 0.0000000000000000e+00  1.4542277266008150e+00 -2.3637310037144668e-01 0.0000000000000000e+00  0.0000000000000000e+00 0.0000000000000000e+00 0.0000000000000000e+00  1.7150677369678474e-01 5.1485974072625007e-01 0.0000000000000000e+00  1.7869661450310246e+00 7.6474537759853312e-01 0.0000000000000000e+00  1.7063553391861943e+00 -5.9403533610716563e-01 0.0000000000000000e+00  1.2003149591179221e+00 2.4612139360619009e-02 0.0000000000000000e+00  1.4681024291413416e+00 -9.9040114526748635e-01 0.0000000000000000e+00  1.3735754075371895e+00 4.4661942872985450e-01 0.0000000000000000e+00  7.5945038117274444e-01 4.6707274920743219e-01 0.0000000000000000e+00  1.3388143386555988e+00 -7.7426078987551453e-02 0.0000000000000000e+00  1.6517921819822794e+00 6.7995248751129134e-01 0.0000000000000000e+00  1.2525137229955887e+00 2.0840786994216914e-01 0.0000000000000000e+00  1.2560753441759174e+00 -4.5682509849989922e-01 0.0000000000000000e+00  1.9461136739389950e+00 -3.8549450282063635e-01 0.0000000000000000e+00  8.6757474613056229e-01 5.0874364610905198e-01 0.0000000000000000e+00  1.5510125116078379e+00 3.9812531678108148e-01 0.0000000000000000e+00  0.0000000000000000e+00 0.0000000000000000e+00 0.0000000000000000e+00  1.4622604817712290e+00 -1.1721512417164430e+00 0.0000000000000000e+00  0.0000000000000000e+00 0.0000000000000000e+00 0.0000000000000000e+00  0.0000000000000000e+00 0.0000000000000000e+00 0.0000000000000000e+00  0.0000000000000000e+00 0.0000000000000000e+00 0.0000000000000000e+00  0.0000000000000000e+00 0.0000000000000000e+00 0.0000000000000000e+00  0.0000000000000000e+00 0.0000000000000000e+00 0.0000000000000000e+00  0.0000000000000000e+00 0.0000000000000000e+00 0.0000000000000000e+00  0.0000000000000000e+00 0.0000000000000000e+00 0.0000000000000000e+00  0.0000000000000000e+00 0.0000000000000000e+00 0.0000000000000000e+00  1.2349612705309869e+00 5.7540212156550108e-01 0.0000000000000000e+00  0.0000000000000000e+00 0.0000000000000000e+00 0.0000000000000000e+00  0.0000000000000000e+00 0.0000000000000000e+00 0.0000000000000000e+00  0.0000000000000000e+00 0.0000000000000000e+00 0.0000000000000000e+00  0.0000000000000000e+00 0.0000000000000000e+00 0.0000000000000000e+00  0.0000000000000000e+00 0.0000000000000000e+00 0.0000000000000000e+00  0.0000000000000000e+00 0.0000000000000000e+00 0.0000000000000000e+00  0.0000000000000000e+00 0.0000000000000000e+00 0.0000000000000000e+00  0.0000000000000000e+00 0.0000000000000000e+00 0.0000000000000000e+00  0.0000000000000000e+00 0.0000000000000000e+00 0.0000000000000000e+00  0.0000000000000000e+00 0.0000000000000000e+00 0.0000000000000000e+00  0.0000000000000000e+00 0.0000000000000000e+00 0.0000000000000000e+00  0.0000000000000000e+00 0.0000000000000000e+00 0.0000000000000000e+00  0.0000000000000000e+00 0.0000000000000000e+00 0.0000000000000000e+00  0.0000000000000000e+00 0.0000000000000000e+00 0.0000000000000000e+00  0.0000000000000000e+00 0.0000000000000000e+00 0.0000000000000000e+00  0.0000000000000000e+00 0.0000000000000000e+00 0.0000000000000000e+00  0.0000000000000000e+00 0.0000000000000000e+00 0.0000000000000000e+00  0.0000000000000000e+00 0.0000000000000000e+00 0.0000000000000000e+00  1.2654425100480982e+00 3.3699997674710887e-02 0.0000000000000000e+00  3.9938962933071731e-01 -2.5138547516054410e-01 0.0000000000000000e+00  1.0687608956591668e+00 8.8811874258234258e-01 0.0000000000000000e+00  1.4128073319990677e+00 -1.3491860018634158e-01 0.0000000000000000e+00  1.2094604272785132e+00 -8.3989108641751450e-02 0.0000000000000000e+00  8.2819531563691962e-01 -8.4915099137021499e-01 0.0000000000000000e+00  6.8432359537619247e-01 -1.3635451589487155e+00 0.0000000000000000e+00  9.4291590968054873e-01 6.5336968668613091e-02 0.0000000000000000e+00  1.3243607883494879e+00 -8.3725193734312128e-02 0.0000000000000000e+00  1.3953505099931820e+00 1.7920254180095928e-02 0.0000000000000000e+00  1.6417903585281106e+00 -4.0368063109843172e-01 0.0000000000000000e+00  9.4281887461107128e-01 -2.5201506840053933e-01 0.0000000000000000e+00  1.2721383380427431e+00 2.2129739469627316e-01 0.0000000000000000e+00  2.2688307745816068e+00 -6.1358715272303488e-01 0.0000000000000000e+00  5.9240125525136578e-01 1.0438281742952733e-01 0.0000000000000000e+00  1.2991945550538886e+00 -3.1362292625844762e-01 0.0000000000000000e+00  1.4024206009773139e+00 -5.0394897362893466e-03 0.0000000000000000e+00  1.8117294372794870e+00 -1.3638885881393789e-01 0.0000000000000000e+00  1.3889670413616066e+00 1.4878812540124490e-02 0.0000000000000000e+00  1.3808541609969833e+00 4.3895447225825300e-02 0.0000000000000000e+00  1.1643723886081017e+00 1.2472170773482692e-01 0.0000000000000000e+00  7.4133165302858062e-01 -1.0196441924944604e+00 0.0000000000000000e+00  8.7435743952107181e-01 -1.6204861158950040e-01 0.0000000000000000e+00  -8.5270894674524988e-01 4.9643597299127457e-01 0.0000000000000000e+00  1.2879241157072108e+00 -3.0304558675722826e-01 0.0000000000000000e+00  1.9085086497041674e+00 -5.0058881425342821e-03 0.0000000000000000e+00  1.1774089454275680e+00 -5.9652214927165925e-01 0.0000000000000000e+00  8.6119737660765150e-01 2.0990542733354208e-02 0.0000000000000000e+00  8.6367347561623864e-01 7.0376911954119319e-03 0.0000000000000000e+00  9.3813928236688449e-01 2.7506054354116531e-03 0.0000000000000000e+00  8.3389125917588691e-01 -1.0698278050228403e-02 0.0000000000000000e+00  2.0917150670420663e+00 3.2608183250315503e-01 0.0000000000000000e+00  2.2310221694576229e+00 2.3093599024459641e-01 0.0000000000000000e+00  5.0899107598780424e-01 -1.7973260064587619e+00 0.0000000000000000e+00  9.2587707940500585e-01 3.2067933984568191e-02 0.0000000000000000e+00  8.8740038808891153e-01 -1.6834293884300136e-03 0.0000000000000000e+00  1.3139010935760385e+00 4.7460354055609039e-01 0.0000000000000000e+00  1.1666495730768045e+00 3.6832944109665794e-01 0.0000000000000000e+00  1.6423297091989990e+00 -9.6183670491052131e-01 0.0000000000000000e+00  1.5503695316986625e+00 -4.8465779393546504e-01 0.0000000000000000e+00  -1.0770222207276722e-01 -6.5601373018606324e-01 0.0000000000000000e+00  -3.0558485807317637e-01 2.1413799304086639e-01 0.0000000000000000e+00  1.0528035196457444e+00 1.3431694205805942e+00 0.0000000000000000e+00  9.6969012706570767e-01 -3.7672994600419918e-01 0.0000000000000000e+00  -1.4192156959813265e-01 -1.4937735844400224e-01 0.0000000000000000e+00  3.2036633242529072e-01 -1.7969260140807122e-01 0.0000000000000000e+00  3.0554808144962320e-01 4.4302892214859407e-01 0.0000000000000000e+00  7.7685610249244685e-01 -7.1985112540815410e-02 0.0000000000000000e+00  9.6297258172598421e-01 -4.7726930773881876e-01 0.0000000000000000e+00  6.5625009624339914e-01 0.0000000000000000e+00 0.0000000000000000e+00  8.5765951569607601e-01 -9.9749325281553707e-03 0.0000000000000000e+00  4.7939195696565173e-01 3.9695492862865715e-02 0.0000000000000000e+00  7.0073756648617902e-01 2.8062419101788381e-02 0.0000000000000000e+00  1.0317265120000325e+00 1.7135703891763254e-01 0.0000000000000000e+00  8.7168116404654750e-01 4.2762617505059088e-02 0.0000000000000000e+00  1.6618739859094369e+00 7.0605061721010320e-01 0.0000000000000000e+00  1.1064061117536756e+00 2.8110642558369259e-01 0.0000000000000000e+00  1.2012377485871906e+00 5.7388048788533408e-01 0.0000000000000000e+00  1.8799068070321787e+00 -1.2598629301399050e-01 0.0000000000000000e+00  1.2449932684626002e+00 4.3199703761280700e-01 0.0000000000000000e+00  1.1607402170801624e+00 -5.7191209647639456e-02 0.0000000000000000e+00  1.5802531367433323e+00 1.8098512360877109e-01 0.0000000000000000e+00  2.1510836372969235e+00 1.2740383489273046e+00 0.0000000000000000e+00  1.3426907646040731e+00 3.1583074770555697e-01 0.0000000000000000e+00  8.4461498522306055e-01 2.4458654195157925e-01 0.0000000000000000e+00  6.3783638654260033e-01 2.3146893548563563e-01 0.0000000000000000e+00  6.2537320140694963e-01 1.2081268286851174e+00 0.0000000000000000e+00  1.0623805234951693e+00 5.2112930221074154e-03 0.0000000000000000e+00  1.1580404250704071e+00 2.2632290446303782e-01 0.0000000000000000e+00  1.3964795764653686e+00 -6.3439924802308834e-01 0.0000000000000000e+00  9.6381067617525062e-01 -3.5952929330233072e-02 0.0000000000000000e+00  1.4719421107293507e+00 -5.7992323604859586e-01 0.0000000000000000e+00  1.4503494440003704e+00 -5.8680829790588532e-03 0.0000000000000000e+00  1.3891097756119988e+00 -1.6900791073835356e-03 0.0000000000000000e+00  8.9115306874090006e-01 -5.9397469297384299e-02 0.0000000000000000e+00  1.1555248621185950e+00 -9.4604685791663212e-01 0.0000000000000000e+00  3.0558190174046340e-01 3.5913115070421453e-01 0.0000000000000000e+00  1.5074207814629901e+00 9.9878363915896173e-01 0.0000000000000000e+00  1.4485564328499814e+00 5.1888469207581378e-01 0.0000000000000000e+00  1.2244651016361003e+00 3.4391766824354947e-01 0.0000000000000000e+00  1.5440246926026480e+00 5.6906422446542870e-01 0.0000000000000000e+00  7.9945273493992508e-01 1.0339742644238030e+00 0.0000000000000000e+00  1.1943543619766381e+00 -6.3994089161442391e-02 0.0000000000000000e+00  9.7226607158231881e-01 -9.3963005360308682e-01 0.0000000000000000e+00  1.7067576884021316e+00 1.2151058022846664e+00 0.0000000000000000e+00  1.7173448851695101e+00 2.2054651178915607e-01 0.0000000000000000e+00  8.4593256830299490e-01 -5.7944616386995253e-02 0.0000000000000000e+00  1.1512183113462786e+00 1.7790690391894970e-01 0.0000000000000000e+00  -2.6699660312792157e-02 1.1551034826956902e-01 0.0000000000000000e+00  1.9287136063462853e+00 -9.9004420248334168e-01 0.0000000000000000e+00  1.8754436493301039e+00 -4.2602594416261164e-01 0.0000000000000000e+00  1.8556622782578986e+00 -4.7759279138727229e-01 0.0000000000000000e+00  1.0857959559823436e+00 -1.4919948104460565e-01 0.0000000000000000e+00  1.4463864791611591e+00 -4.4352155483817779e-01 0.0000000000000000e+00  4.6663956272118234e-01 -1.2984772759900071e-01 0.0000000000000000e+00  8.2096600919907475e-02 1.4726933391716437e-01 0.0000000000000000e+00  5.6492103680633654e-01 -2.3611906353403075e-01 0.0000000000000000e+00  3.1974532315363835e-01 -8.8502261746871447e-01 0.0000000000000000e+00  1.6116549499667376e+00 8.6845260328017523e-02 0.0000000000000000e+00  6.1175863736363156e-01 -3.7042033007569052e-02 0.0000000000000000e+00  6.1443161852122508e-01 1.1310716820381846e-01 0.0000000000000000e+00  1.1677618578905136e+00 -3.1786276140293590e-01 0.0000000000000000e+00  1.0639555859356615e+00 5.3539120442864943e-03 0.0000000000000000e+00  1.1442476549546101e+00 2.1403507854458350e-02 0.0000000000000000e+00  1.8257204055403435e+00 8.5565263465876584e-01 0.0000000000000