<?xml version="1.0"?>
<VTKFile type="UnstructuredGrid"  version="0.1"  >
<UnstructuredGrid>
<Piece  NumberOfPoints="4269" NumberOfCells="8234">
<Points>
<DataArray  type="Float64"  NumberOfComponents="3"  format="ascii">0 1 0  0 0 0  7.5 0 0  7.5 1 0  1.197537668119028 0.5812868930080463 0  1.2 0.55 0  1.197537668119028 0.5187131069919538 0  1.190211303259031 0.4881966011250105 0  1.178201304837674 0.4592019000520907 0  1.161803398874989 0.4324429495415054 0  1.141421356237309 0.4085786437626905 0  1.117557050458495 0.3881966011250105 0  1.090798099947909 0.3717986951623264 0  1.06180339887499 0.3597886967409693 0  1.031286893008046 0.3524623318809725 0  1 0.35 0  0.9687131069919538 0.3524623318809725 0  0.9381966011250105 0.3597886967409694 0  0.9092019000520906 0.3717986951623264 0  0.8824429495415054 0.3881966011250105 0  0.8585786437626904 0.4085786437626905 0  0.8381966011250105 0.4324429495415054 0  0.8217986951623264 0.4592019000520907 0  0.8097886967409692 0.4881966011250107 0  0.8024623318809725 0.5187131069919539 0  0.8 0.55 0  0.8024623318809725 0.5812868930080463 0  0.8097886967409693 0.6118033988749896 0  0.8217986951623264 0.6407980999479095 0  0.8381966011250105 0.6675570504584947 0  0.8585786437626906 0.6914213562373096 0  0.8824429495415054 0.7118033988749896 0  0.9092019000520907 0.7282013048376736 0  0.9381966011250106 0.7402113032590307 0  0.9687131069919539 0.7475376681190276 0  1 0.75 0  1.031286893008046 0.7475376681190276 0  1.06180339887499 0.7402113032590307 0  1.090798099947909 0.7282013048376736 0  1.117557050458495 0.7118033988749896 0  1.141421356237309 0.6914213562373095 0  1.161803398874989 0.6675570504584947 0  1.178201304837674 0.6407980999479094 0  1.190211303259031 0.6118033988749896 0  3.75 0 0  3.75 1 0  1.875 0 0  1.875 1 0  0.9375 0 0  0.9375 1 0  1.40625 1 0  5.625 1 0  5.625 0 0  2.8125 1 0  2.8125 0 0  4.6875 0 0  4.6875 1 0  6.5625 0 0  6.5625 1 0  5.15625 0.5 0  4.21875 0.5 0  2.34375 0.5 0  3.28125 0.5 0  6.09375 0.5 0  7.5 0.5 0  6.897916666666666 0.5 0  1.842708333333333 0.5 0  0 0.5 0  0.46875 0 0  5.625 0.5302734375 0  7.03125 0 0  6.09375 1 0  2.8125 0.4697265625 0  3.28125 0 0  2.34375 1 0  2.34375 0 0  3.75 0.4697265625 0  4.21875 0 0  4.21875 1 0  4.6875 0.5302734375 0  3.28125 1 0  5.15625 0 0  6.09375 0 0  5.15625 1 0  0.46875 1 0  1.40625 0 0  7.03125 1 0  0.3954638734376499 0.5975780249976004 0  6.495833333333334 0.4072265624999998 0  5.859375 0.25 0  4.905729166666666 0.26513671875 0  4.453125 0.25 0  3.531770833333333 0.73486328125 0  3.968229166666667 0.73486328125 0  2.594270833333333 0.73486328125 0  3.030729166666667 0.73486328125 0  6.328125 0.75 0  7.198958333333334 0.3125000000000002 0  7.198958333333334 0.6874999999999998 0  5.390625 0.25 0  0 0.25 0  2.109375 0.75 0  2.109375 0.25 0  1.51921323205749 0.3418883887525936 0  1.522346610178253 0.6811769608297746 0  5.375456746419271 0.75 0  4.921875 0.76513671875 0  4.437956746419271 0.75 0  3.984375 0.23486328125 0  3.500456746419271 0.25 0  2.578125 0.23486328125 0  3.046875 0.23486328125 0  5.874543253580729 0.75 0  6.642123189445656 0.6909095493086836 0  6.746354166666666 0.2391688368055553 0  0.3197109619185111 0.2850049285972083 0  6.328125 0 0  0.6313375889370429 0.2351325552547357 0  0 0.75 0  6.252283381534729 0.2693808819694041 0  0.234375 1 0  6.948437500000001 0.7543055555555555 0  0.5934018769555939 0.7694151657947577 0  1.858854166666667 0.75 0  1.858854166666667 0.25 0  1.640625 0 0  2.093229166666667 0.5 0  7.5 0.25 0  3.282227579752604 0.75 0  7.5 0.75 0  1.171875 0 0  1.303539853147731 0.2235426933121065 0  5.148177083333333 0.2575683593749998 0  2.351822916666667 0.742431640625 0  1.640625 1 0  4.202380413457425 0.7645435094236485 0  3.047822985053062 0.4701848030090332 0  2.577177014946938 0.4701848030090332 0  4.672792740482199 0.76513671875 0  4.922822985053062 0.5298151969909668 0  5.390593497949761 0.5156244924311331 0  5.610292740482199 0.76513671875 0  3.516602579752604 0.5 0  4.45496853898097 0.4865915990446593 0  5.85753146101903 0.4865915990446593 0  3.749511210123698 0.23486328125 0  3.983397420247396 0.4999999999999999 0  2.343497975411212 0.2346270081980111 0  4.219002024588788 0.2346270081980111 0  0.703125 0 0  2.8125 0.2343755075688669 0  3.046875 0 0  2.578125 0 0  3.515625 0 0  3.984375 0 0  4.453125 1 0  5.390625 1 0  2.109375 0 0  2.109375 1 0  5.625 0.2921402030705575 0  5.390625 0 0  7.265625 0 0  6.796875 0 0  6.328125 1 0  3.046875 1 0  2.578125 1 0  3.984375 1 0  3.515625 1 0  4.453125 0 0  4.921875 0 0  5.859375 0 0  0.703125 1 0  1.171875 1 0  7.265625 1 0  4.921875 1 0  5.859375 1 0  0.234375 0 0  6.796875 1 0  6.980310975276531 0.2285890127127066 0  5.149170481934885 0.772689292163473 0  3.274170481934884 0.2273107078365268 0  6.101334126790364 0.7722468376159667 0  4.678005340872584 0.3000799877067239 0  2.8125 0.6921051326382495 0  3.75 0.6921051326382495 0  0.3515624999999999 0.8134571721668546 0  0.4990405774417521 0.4070099317153735 0  0.1789273931360182 0.625 0  6.31239060814315 0.5298877111157968 0  6.456979773992304 0.1917956348713352 0  6.699870808919271 0.4406293402777773 0  1.337539480965883 0.7944303676599538 0  6.058675797563041 0.2019812164653516 0  0.8203125 0.1643029084422534 0  0.1480856513011711 0.375 0  1.090769294689562 0.1719186776982972 0  7.291088163206459 0.5 0  7.094502414936563 0.5197902199074071 0  0.6046212059042245 0.5730066483871106 0  1.707231580809486 0.6342709161352207 0  1.685961352504593 0.8193269193390785 0  1.374721602852827 0.4600373025865813 0  6.486415510043844 0.5916440776477192 0  1.5234375 0.1508863828685116 0  1.707925830421689 0.3657739208189008 0  0.1674513225045584 0.8278776664019765 0  7.138268756771176 0.1438183366439137 0  7.1484375 0.8616388888888887 0  7.328562530764119 0.819498462930605 0  4.101073710123698 0.3678637200736647 0  1.693878467219965 0.1911955120941053 0  1.577566745468488 0.5110082404081502 0  6.6796875 0.8653871806883484 0  6.498039504430512 0.825568433346395 0  0.7562556668576472 0.8333197949571929 0  4.101045914668806 0.6255195807449272 0  5.030745188395182 0.382829047309028 0  2.476364945868651 0.6095868094762166 0  2.729359843907322 0.8460525663191247 0  2.9296875 0.8740763101564099 0  3.163518307559356 0.6254622797994247 0  3.666859843907322 0.8460525663191247 0  3.8671875 0.8740763101564099 0  4.8046875 0.12592368984359 0  3.14936031382311 0.8606990583876851 0  2.4609375 0.8747622921397776 0  5.023140791101972 0.1392266772452574 0  0 0.125 0  0.1759922923594607 0.1727589856739889 0  4.5703125 0.125 0  7.327755777818006 0.1766156770456191 0  5.5078125 0.125 0  5.719712725029036 0.1460701015352787 0  4.327848962028002 0.3674169956512513 0  5.982681121544351 0.3692637923021713 0  3.398926289876302 0.6245417594909667 0  5.281756792511996 0.3827993367299961 0  2.226822645963271 0.6252438868405666 0  2.234390064317166 0.8676616584526566 0  5.2734375 0.125 0  1.96796875 0.382568359375 0  2.234651037971999 0.3674169956512511 0  1.984114583333333 0.132568359375 0  1.9921875 0.875 0  1.984114583333333 0.632568359375 0  5.748733794462357 0.8678269127183313 0  3.3984375 0.875456329184688 0  1.512925924995415 0.8582958012121853 0  1.359299372802969 0.6275861864990343 0  4.810521420483513 0.4041767793635395 0  0.2996213306116602 0.455339710363317 0  5.999933717403708 0.6388425470751088 0  5.250033449003657 0.6388713364551682 0  3.631676045992918 0.3525406652400928 0  4.3359375 0.8816499670325881 0  4.343577437052484 0.6116511299909198 0  3.375033449003656 0.3611286635448316 0  5.763152151652243 0.6249404690537395 0  4.549347848347757 0.6249404690537396 0  5.5004588702411 0.6403667365776566 0  5.976118394847484 0.8816230218343086 0  5.054722486865804 0.6338007028640954 0  3.164542163493752 0.3520519332736524 0  2.445407482032355 0.3672168403687257 0  4.8046875 0.882568359375 0  4.1015625 0.117431640625 0  2.4609375 0.117431640625 0  2.695556894938151 0.3520510350344335 0  2.929443105061849 0.3520510350344335 0  3.881979231817319 0.3670559016511187 0  3.8671875 0.117431640625 0  4.805389247695744 0.6470047893641744 0  3.399370721942191 0.1184066543556767 0  5.274370721942192 0.881593345644323 0  3.618253274934649 0.1316869186284249 0  2.6953125 0.1171877537844335 0  2.9296875 0.1171877537844335 0  2.21873344389451 0.125 0  4.3359375 0.1171877625080073 0  0.6659898565672709 0.3986593551313873 0  7.363359022954956 0.3481046411219251 0  7.363359022954956 0.6518953588780749 0  5.487719392831826 0.3828237631077121 0  2.695054578344725 0.5809158475691247 0  2.944553877887707 0.5964065668438148 0  0.3515625 0.1201898858097106 0  5.5078125 1 0  4.5703125 1 0  5.031746201297604 0.882568359375 0  3.1640625 0 0  6.2109375 1 0  6.186845385763124 0.6336356480571081 0  4.1015625 1 0  6.810399074069772 0.6495574751396682 0  0.4740615253480797 0.2509287743856873 0  7.052064303830151 0.3684417917792242 0  6.195177069665382 0.1216488332168849 0  5.72300154718324 0.4112068202852788 0  3.879157465495092 0.6111892850691246 0  3.645760045247695 0.5809158475691247 0  6.868257400485771 0.3427840810237202 0  6.612030892260864 0.1521752713064389 0  6.615666885941117 0.3151079644097221 0  4.04296875 0.8633718902669071 0  1.183031453639096 0.8486801864185936 0  6.9140625 0 0  6.859079526500421 0.1398292786950638 0  6.808232443325651 0.7957411753922057 0  6.9140625 1 0  4.544955211100143 0.3675874343205077 0  1.0546875 1 0  6.122060236165557 0.3316791557072867 0  0.5859375 0 0  5.9765625 0 0  5.44921875 0.870984788733638 0  4.51171875 0.870984788733638 0  0.7608354256382215 0.2931261274224557 0  6.386875332239937 0.3156583003094978 0  6.985654756850997 0.6147408423643147 0  6.223797257919172 0.8535621912121121 0  5.936822413218736 0.1338376546337823 0  6.23933008800134 0.4095573603773768 0  0.5414022462152697 0.1305482677949959 0  6.331360438104348 0.1370086318183389 0  0.956404929269873 0.1374266563647954 0  1.2890625 1 0  0.691305981127761 0.6764829884281737 0  3.531251607241209 0.8678916320952239 0  2.59787442813022 
[...]
<PointData  Vectors="f_71627"> 
<DataArray  type="Float64"  Name="f_71627"  NumberOfComponents="3" format="ascii">0.0000000000000000e+00 0.0000000000000000e+00 0.0000000000000000e+00  0.0000000000000000e+00 0.0000000000000000e+00 0.0000000000000000e+00  0.0000000000000000e+00 0.0000000000000000e+00 0.0000000000000000e+00  0.0000000000000000e+00 0.0000000000000000e+00 0.0000000000000000e+00  0.0000000000000000e+00 0.0000000000000000e+00 0.0000000000000000e+00  0.0000000000000000e+00 0.0000000000000000e+00 0.0000000000000000e+00  0.0000000000000000e+00 0.0000000000000000e+00 0.0000000000000000e+00  0.0000000000000000e+00 0.0000000000000000e+00 0.0000000000000000e+00  0.0000000000000000e+00 0.0000000000000000e+00 0.0000000000000000e+00  0.0000000000000000e+00 0.0000000000000000e+00 0.0000000000000000e+00  0.0000000000000000e+00 0.0000000000000000e+00 0.0000000000000000e+00  0.0000000000000000e+00 0.0000000000000000e+00 0.0000000000000000e+00  0.0000000000000000e+00 0.0000000000000000e+00 0.0000000000000000e+00  0.0000000000000000e+00 0.0000000000000000e+00 0.0000000000000000e+00  0.0000000000000000e+00 0.0000000000000000e+00 0.0000000000000000e+00  0.0000000000000000e+00 0.0000000000000000e+00 0.0000000000000000e+00  0.0000000000000000e+00 0.0000000000000000e+00 0.0000000000000000e+00  0.0000000000000000e+00 0.0000000000000000e+00 0.0000000000000000e+00  0.0000000000000000e+00 0.0000000000000000e+00 0.0000000000000000e+00  0.0000000000000000e+00 0.0000000000000000e+00 0.0000000000000000e+00  0.0000000000000000e+00 0.0000000000000000e+00 0.0000000000000000e+00  0.0000000000000000e+00 0.0000000000000000e+00 0.0000000000000000e+00  0.0000000000000000e+00 0.0000000000000000e+00 0.0000000000000000e+00  0.0000000000000000e+00 0.0000000000000000e+00 0.0000000000000000e+00  0.0000000000000000e+00 0.0000000000000000e+00 0.0000000000000000e+00  0.0000000000000000e+00 0.0000000000000000e+00 0.0000000000000000e+00  0.0000000000000000e+00 0.0000000000000000e+00 0.0000000000000000e+00  0.0000000000000000e+00 0.0000000000000000e+00 0.0000000000000000e+00  0.0000000000000000e+00 0.0000000000000000e+00 0.0000000000000000e+00  0.0000000000000000e+00 0.0000000000000000e+00 0.0000000000000000e+00  0.0000000000000000e+00 0.0000000000000000e+00 0.0000000000000000e+00  0.0000000000000000e+00 0.0000000000000000e+00 0.0000000000000000e+00  0.0000000000000000e+00 0.0000000000000000e+00 0.0000000000000000e+00  0.0000000000000000e+00 0.0000000000000000e+00 0.0000000000000000e+00  0.0000000000000000e+00 0.0000000000000000e+00 0.0000000000000000e+00  0.0000000000000000e+00 0.0000000000000000e+00 0.0000000000000000e+00  0.0000000000000000e+00 0.0000000000000000e+00 0.0000000000000000e+00  0.0000000000000000e+00 0.0000000000000000e+00 0.0000000000000000e+00  0.0000000000000000e+00 0.0000000000000000e+00 0.0000000000000000e+00  0.0000000000000000e+00 0.0000000000000000e+00 0.0000000000000000e+00  0.0000000000000000e+00 0.0000000000000000e+00 0.0000000000000000e+00  0.0000000000000000e+00 0.0000000000000000e+00 0.0000000000000000e+00  0.0000000000000000e+00 0.0000000000000000e+00 0.0000000000000000e+00  0.0000000000000000e+00 0.0000000000000000e+00 0.0000000000000000e+00  0.0000000000000000e+00 0.0000000000000000e+00 0.0000000000000000e+00  0.0000000000000000e+00 0.0000000000000000e+00 0.0000000000000000e+00  0.0000000000000000e+00 0.0000000000000000e+00 0.0000000000000000e+00  0.0000000000000000e+00 0.0000000000000000e+00 0.0000000000000000e+00  0.0000000000000000e+00 0.0000000000000000e+00 0.0000000000000000e+00  0.0000000000000000e+00 0.0000000000000000e+00 0.0000000000000000e+00  0.0000000000000000e+00 0.0000000000000000e+00 0.0000000000000000e+00  0.0000000000000000e+00 0.0000000000000000e+00 0.0000000000000000e+00  0.0000000000000000e+00 0.0000000000000000e+00 0.0000000000000000e+00  0.0000000000000000e+00 0.0000000000000000e+00 0.0000000000000000e+00  0.0000000000000000e+00 0.0000000000000000e+00 0.0000000000000000e+00  0.0000000000000000e+00 0.0000000000000000e+00 0.0000000000000000e+00  0.0000000000000000e+00 0.0000000000000000e+00 0.0000000000000000e+00  0.0000000000000000e+00 0.0000000000000000e+00 0.0000000000000000e+00  0.0000000000000000e+00 0.0000000000000000e+00 0.0000000000000000e+00  1.2800566177638548e+00 -2.2789505621007036e-01 0.0000000000000000e+00  1.3259979129479291e+00 6.9377007216401176e-01 0.0000000000000000e+00  1.9624520027262755e+00 -6.8126363544294999e-01 0.0000000000000000e+00  1.3480807286210528e+00 2.3940573537639220e-01 0.0000000000000000e+00  1.1510569072307955e+00 2.1061981968644723e-03 0.0000000000000000e+00  1.5000002127186101e+00 0.0000000000000000e+00 0.0000000000000000e+00  1.2225615844328566e+00 -9.8584436982775700e-04 0.0000000000000000e+00  1.3172230302012600e+00 1.3595293736391343e+00 0.0000000000000000e+00  1.5000002127186101e+00 0.0000000000000000e+00 0.0000000000000000e+00  0.0000000000000000e+00 0.0000000000000000e+00 0.0000000000000000e+00  1.1495042109530296e+00 1.9063685688887333e-04 0.0000000000000000e+00  0.0000000000000000e+00 0.0000000000000000e+00 0.0000000000000000e+00  0.0000000000000000e+00 0.0000000000000000e+00 0.0000000000000000e+00  1.7276597816513035e+00 6.6451885495613583e-01 0.0000000000000000e+00  0.0000000000000000e+00 0.0000000000000000e+00 0.0000000000000000e+00  0.0000000000000000e+00 0.0000000000000000e+00 0.0000000000000000e+00  0.0000000000000000e+00 0.0000000000000000e+00 0.0000000000000000e+00  1.9285300278187871e+00 -6.8929990321263523e-01 0.0000000000000000e+00  0.0000000000000000e+00 0.0000000000000000e+00 0.0000000000000000e+00  0.0000000000000000e+00 0.0000000000000000e+00 0.0000000000000000e+00  1.0373779919432662e+00 -4.7812595304059471e-02 0.0000000000000000e+00  0.0000000000000000e+00 0.0000000000000000e+00 0.0000000000000000e+00  0.0000000000000000e+00 0.0000000000000000e+00 0.0000000000000000e+00  0.0000000000000000e+00 0.0000000000000000e+00 0.0000000000000000e+00  0.0000000000000000e+00 0.0000000000000000e+00 0.0000000000000000e+00  0.0000000000000000e+00 0.0000000000000000e+00 0.0000000000000000e+00  0.0000000000000000e+00 0.0000000000000000e+00 0.0000000000000000e+00  0.0000000000000000e+00 0.0000000000000000e+00 0.0000000000000000e+00  1.3741183438887039e+00 1.3378748192773120e-02 0.0000000000000000e+00  1.1708297038061575e+00 -2.6029986706673901e-03 0.0000000000000000e+00  1.1545006956417119e+00 3.9453668826163624e-03 0.0000000000000000e+00  7.7810894975032086e-01 -1.5949577308033980e-01 0.0000000000000000e+00  1.0274141865683974e+00 1.8466032052101750e-01 0.0000000000000000e+00  9.1411116902666689e-01 -9.8046730455313813e-01 0.0000000000000000e+00  5.3377328865986573e-01 4.9257544339059178e-01 0.0000000000000000e+00  4.0942651471171010e-01 -1.0267205139019602e+00 0.0000000000000000e+00  1.1309364324408795e+00 9.6687407604524833e-01 0.0000000000000000e+00  1.1554485102340659e+00 -1.0019427983709796e-03 0.0000000000000000e+00  9.0304075877139001e-01 -3.5390746130444946e-03 0.0000000000000000e+00  1.0130599517009140e+00 1.2405080951523701e-02 0.0000000000000000e+00  1.1172589658496574e+00 -3.4814480871815136e-03 0.0000000000000000e+00  1.1250001595389578e+00 0.0000000000000000e+00 0.0000000000000000e+00  1.6887285539029961e+00 -2.4902521109518114e-01 0.0000000000000000e+00  8.8816522419879607e-01 1.4917899365642753e-01 0.0000000000000000e+00  1.8694541460898553e+00 2.2278831982722222e-01 0.0000000000000000e+00  5.4400246193953983e-01 -1.1395027433683815e+00 0.0000000000000000e+00  1.1517519651998358e+00 3.9713696748870674e-02 0.0000000000000000e+00  1.2935169478573612e+00 -1.2438399071813544e-01 0.0000000000000000e+00  1.0859691993592311e+00 6.4130345498337915e-01 0.0000000000000000e+00  1.6738588699612651e+00 -8.4033990552162749e-02 0.0000000000000000e+00  1.1034944640503466e+00 -3.0971974600886598e-01 0.0000000000000000e+00  1.6885496619134885e+00 -1.0666544896458698e+00 0.0000000000000000e+00  1.0277140590201324e+00 3.8553033509835072e-01 0.0000000000000000e+00  1.1532980839487150e+00 1.6649975943071374e-03 0.0000000000000000e+00  1.1400730486934609e+00 -6.4457240519430481e-04 0.0000000000000000e+00  1.1453139319273915e+00 -7.2457537500049919e-03 0.0000000000000000e+00  1.2172815247746833e+00 -5.6191712942409426e-02 0.0000000000000000e+00  0.0000000000000000e+00 0.0000000000000000e+00 0.0000000000000000e+00  1.1908230799696611e+00 -2.8507375783978173e-01 0.0000000000000000e+00  1.1250001595389578e+00 0.0000000000000000e+00 0.0000000000000000e+00  1.1600008724168409e+00 3.6726547834275013e-03 0.0000000000000000e+00  0.0000000000000000e+00 0.0000000000000000e+00 0.0000000000000000e+00  1.2800807136681218e+00 -2.5082927194589877e-03 0.0000000000000000e+00  1.0987947916590919e+00 2.4060583002219840e-01 0.0000000000000000e+00  5.5333161432914679e-01 3.8892175956926384e-01 0.0000000000000000e+00  1.6481433729823731e+00 5.6536396838172187e-01 0.0000000000000000e+00  0.0000000000000000e+00 0.0000000000000000e+00 0.0000000000000000e+00  1.3220184427675243e+00 3.3655550782243965e-01 0.0000000000000000e+00  1.1250001595389578e+00 0.0000000000000000e+00 0.0000000000000000e+00  1.5846189756062332e+00 4.5724849543807033e-01 0.0000000000000000e+00  1.1250001595389578e+00 0.0000000000000000e+00 0.0000000000000000e+00  0.0000000000000000e+00 0.0000000000000000e+00 0.0000000000000000e+00  2.2589832761209254e+00 -1.1284993402930932e-01 0.0000000000000000e+00  1.0604495317993918e+00 -9.0608898634940635e-02 0.0000000000000000e+00  9.6907825858770780e-01 -1.4165785672446812e-01 0.0000000000000000e+00  0.0000000000000000e+00 0.0000000000000000e+00 0.0000000000000000e+00  4.0693904010802079e-01 7.9446405966176215e-01 0.0000000000000000e+00  1.6773278714228645e+00 1.2170773514986144e+00 0.0000000000000000e+00  1.5546243511595170e+00 -1.0248162398034375e+00 0.0000000000000000e+00  1.8678420512655720e+00 -4.0884066021190935e-01 0.0000000000000000e+00  1.4544767824982061e+00 -5.6571096631483819e-01 0.0000000000000000e+00  1.1819126472995667e+00 1.2128555038596348e-04 0.0000000000000000e+00  1.1236642133404007e+00 5.6599724160713016e-03 0.0000000000000000e+00  1.5194741357148336e+00 -1.1141620465626889e+00 0.0000000000000000e+00  9.9750935743425029e-01 6.6093243696857984e-01 0.0000000000000000e+00  1.1595004986432753e+00 4.7814214823189132e-03 0.0000000000000000e+00  1.5976171111247053e+00 -3.5033613954446707e-01 0.0000000000000000e+00  1.8527859712650301e+00 1.5410986217618469e-01 0.0000000000000000e+00  5.3085844864754250e-01 -7.3243472672674906e-02 0.0000000000000000e+00  1.3685499732572624e+00 1.3851195527539642e-01 0.0000000000000000e+00  0.0000000000000000e+00 0.0000000000000000e+00 0.0000000000000000e+00  1.8157707775643828e+00 5.0165790315158731e-01 0.0000000000000000e+00  0.0000000000000000e+00 0.0000000000000000e+00 0.0000000000000000e+00  0.0000000000000000e+00 0.0000000000000000e+00 0.0000000000000000e+00  0.0000000000000000e+00 0.0000000000000000e+00 0.0000000000000000e+00  0.0000000000000000e+00 0.0000000000000000e+00 0.0000000000000000e+00  0.0000000000000000e+00 0.0000000000000000e+00 0.0000000000000000e+00  0.0000000000000000e+00 0.0000000000000000e+00 0.0000000000000000e+00  0.0000000000000000e+00 0.0000000000000000e+00 0.0000000000000000e+00  0.0000000000000000e+00 0.0000000000000000e+00 0.0000000000000000e+00  1.1452062923286117e+00 -8.2294547514420360e-03 0.0000000000000000e+00  0.0000000000000000e+00 0.0000000000000000e+00 0.0000000000000000e+00  0.0000000000000000e+00 0.0000000000000000e+00 0.0000000000000000e+00  0.0000000000000000e+00 0.0000000000000000e+00 0.0000000000000000e+00  0.0000000000000000e+00 0.0000000000000000e+00 0.0000000000000000e+00  0.0000000000000000e+00 0.0000000000000000e+00 0.0000000000000000e+00  0.0000000000000000e+00 0.0000000000000000e+00 0.0000000000000000e+00  0.0000000000000000e+00 0.0000000000000000e+00 0.0000000000000000e+00  0.0000000000000000e+00 0.0000000000000000e+00 0.0000000000000000e+00  0.0000000000000000e+00 0.0000000000000000e+00 0.0000000000000000e+00  0.0000000000000000e+00 0.0000000000000000e+00 0.0000000000000000e+00  0.0000000000000000e+00 0.0000000000000000e+00 0.0000000000000000e+00  0.0000000000000000e+00 0.0000000000000000e+00 0.0000000000000000e+00  0.0000000000000000e+00 0.0000000000000000e+00 0.0000000000000000e+00  0.0000000000000000e+00 0.0000000000000000e+00 0.0000000000000000e+00  0.0000000000000000e+00 0.0000000000000000e+00 0.0000000000000000e+00  0.0000000000000000e+00 0.0000000000000000e+00 0.0000000000000000e+00  0.0000000000000000e+00 0.0000000000000000e+00 0.0000000000000000e+00  0.0000000000000000e+00 0.0000000000000000e+00 0.0000000000000000e+00  1.1842650787857167e+00 -9.6479074166443043e-05 0.0000000000000000e+00  1.1529739503350243e+00 8.5477424337410846e-02 0.0000000000000000e+00  7.5648304003550870e-01 2.1435636391459761e-01 0.0000000000000000e+00  1.1514843272889412e+00 2.7254257179086714e-03 0.0000000000000000e+00  6.5971352813722883e-01 1.0834367127401985e-01 0.0000000000000000e+00  9.9144172543284859e-01 3.8522763415979178e-01 0.0000000000000000e+00  8.6962642729657691e-01 -9.1362141607654979e-01 0.0000000000000000e+00  9.3476873476267230e-01 4.4763010582805220e-02 0.0000000000000000e+00  1.3325254078437729e+00 -1.2926408874579692e-01 0.0000000000000000e+00  1.3962697965151067e+00 1.2624659799704646e-02 0.0000000000000000e+00  1.1560135576091486e+00 -4.5554933769947252e-04 0.0000000000000000e+00  1.1626810986238789e+00 -2.4481474925900260e-03 0.0000000000000000e+00  1.2024756725484611e+00 -5.5144465247104167e-03 0.0000000000000000e+00  2.0554424709396932e+00 -4.8927915789372067e-01 0.0000000000000000e+00  1.1499710153435212e+00 2.8799650293594770e-03 0.0000000000000000e+00  1.3689562397508805e+00 -3.3449285403964357e-01 0.0000000000000000e+00  1.4028412953023925e+00 -6.2105316145452576e-03 0.0000000000000000e+00  1.9347938710629200e+00 -1.9024322539984589e-01 0.0000000000000000e+00  1.3812972412738467e+00 4.0465249289117454e-03 0.0000000000000000e+00  1.3683167822023738e+00 3.2958285314905649e-03 0.0000000000000000e+00  1.1597098072407945e+00 7.0989620291513483e-02 0.0000000000000000e+00  -2.7899833244104100e-01 6.2416617247345957e-02 0.0000000000000000e+00  1.0449930647092103e+00 3.2344666619592141e-03 0.0000000000000000e+00  -5.7765124622376884e-01 -1.1062287761052660e+00 0.0000000000000000e+00  1.1606603132021631e+00 -7.7619965082456328e-04 0.0000000000000000e+00  2.1023739737681670e+00 3.1188098460069208e-01 0.0000000000000000e+00  2.2418355158701164e+00 1.2097839754839965e+00 0.0000000000000000e+00  8.5952602407611600e-01 1.7625472344853416e-02 0.0000000000000000e+00  8.8335258448707876e-01 5.9642382393574874e-04 0.0000000000000000e+00  9.8597808746453619e-01 -6.8408599004857260e-04 0.0000000000000000e+00  8.1827284587351523e-01 -7.4792683258283060e-03 0.0000000000000000e+00  1.8202742793573796e+00 2.4495943598117531e-01 0.0000000000000000e+00  1.9601690264894391e+00 6.3633150880742340e-01 0.0000000000000000e+00  1.1785082087562164e-01 -3.2990132301349728e-01 0.0000000000000000e+00  1.0616481097633323e+00 6.7198371317472617e-03 0.0000000000000000e+00  1.0591377432581983e+00 -2.7934692472414541e-03 0.0000000000000000e+00  1.2437689081991954e+00 4.5037066014709587e-01 0.0000000000000000e+00  1.0769091579568641e+00 7.1664065666079124e-01 0.0000000000000000e+00  1.1097530791588506e+00 -2.7191492546358237e-01 0.0000000000000000e+00  1.2181453489482832e+00 -8.7064850924491055e-01 0.0000000000000000e+00  -5.5997123084993683e-01 -4.9123881110675921e-01 0.0000000000000000e+00  -2.3491632207085819e-01 4.7024036177611256e-01 0.0000000000000000e+00  1.8848294164652852e+00 1.0643627528911785e+00 0.0000000000000000e+00  2.4610977583756438e-02 -3.6628025019476812e-01 0.0000000000000000e+00  -2.9481882852797414e-01 8.6679083268490095e-02 0.0000000000000000e+00  7.7248996136502390e-01 -4.9233022553666081e-03 0.0000000000000000e+00  6.3695201658281442e-01 4.7917899651858037e-01 0.0000000000000000e+00  5.6419605208948131e-01 -2.0911677273290458e-01 0.0000000000000000e+00  9.2173980093325925e-01 -2.8127901429662726e-02 0.0000000000000000e+00  6.5625009306439186e-01 0.0000000000000000e+00 0.0000000000000000e+00  8.5812798950312807e-01 -1.3523305739153302e-02 0.0000000000000000e+00  7.8934959823523188e-01 4.3953363896667437e-02 0.0000000000000000e+00  6.2594458920894724e-01 2.7132029118773628e-02 0.0000000000000000e+00  1.0126048161579380e+00 7.7289353061825421e-03 0.0000000000000000e+00  1.0715286736914258e+00 1.1877543227450595e-03 0.0000000000000000e+00  1.3159098156831970e+00 5.1954188711048133e-01 0.0000000000000000e+00  1.1408530805285695e+00 2.0346888948444262e-03 0.0000000000000000e+00  1.7097673375695790e+00 -7.1101151961313125e-01 0.0000000000000000e+00  1.1349575323898817e+00 -6.1184321928896425e-02 0.0000000000000000e+00  1.5034698745136461e+00 -2.5475487719726619e-01 0.0000000000000000e+00  7.6433749780763360e-01 3.3354674428212945e-02 0.0000000000000000e+00  1.0070330464521515e+00 -8.9143094972101017e-03 0.0000000000000000e+00  1.3929802679966667e+00 6.2369691064268673e-01 0.0000000000000000e+00  1.3672968502947003e+00 6.5879397183685395e-01 0.0000000000000000e+00  7.0164257377465700e-01 -7.5695264371462401e-02 0.0000000000000000e+00  1.3149324212916875e+00 -3.7903785037614081e-02 0.0000000000000000e+00  1.0381500177254155e+00 5.2594449441814639e-01 0.0000000000000000e+00  1.0161869959419028e+00 4.8957505998961670e-04 0.0000000000000000e+00  9.8590233798976989e-01 -3.2021801123672630e-02 0.0000000000000000e+00  1.3338979500459898e+00 -3.7623156218470055e-01 0.0000000000000000e+00  -2.0045834862944843e-02 -3.5542766476663834e-01 0.0000000000000000e+00  1.0129178840974471e+00 -3.5528172168206051e-01 0.0000000000000000e+00  1.4533222703195605e+00 -2.6189766064603978e-02 0.0000000000000000e+00  1.1564168016892138e+00 1.7096732435425341e-03 0.0000000000000000e+00  1.2165684054736792e+00 5.1258223335165762e-02 0.0000000000000000e+00  1.6466891693677796e+00 -6.5507124057211885e-01 0.0000000000000000e+00  8.0521095368669993e-01 2.6776775093184912e-01 0.0000000000000000e+00  9.8356202860459163e-01 8.0040016355310628e-01 0.0000000000000000e+00  8.7195280232709493e-01 -3.5999507045945150e-01 0.0000000000000000e+00  1.1683272159665614e+00 1.3709439468128625e-02 0.0000000000000000e+00  1.0516106026539882e+00 6.2441838461696397e-01 0.0000000000000000e+00  1.1888288056287544e+00 6.9866022506017656e-03 0.0000000000000000e+00  9.7815324909300128e-01 3.2088299937534591e-03 0.0000000000000000e+00  1.2918438720980596e+00 6.2481419533733200e-02 0.0000000000000000e+00  9.4388272089551883e-01 5.5521595749827857e-01 0.0000000000000000e+00  1.8552640869026447e+00 -1.5670402501258041e+00 0.0000000000000000e+00  9.6397974373634898e-01 -1.4299643960461472e-01 0.0000000000000000e+00  1.1259141659304208e+00 -5.6299094579278369e-02 0.0000000000000000e+00  2.8257992470245402e-01 -3.8475842524863396e-01 0.0000000000000000e+00  1.9150146777539645e+00 -1.5736874960518363e-01 0.0000000000000000e+00  1.8085419802134362e+00 1.0361623018008539e+00 0.0000000000000000e+00  2.1320011193455288e+00 -1.9831299032633590e-01 0.0000000000000000e+00  9.7597229543489961e-01 -1.7414289135074768e-01 0.0000000000000000e+00  1.6061650054587526e+00 -7.6319983324176643e-01 0.0000000000000000e+00  2.2040907268248242e-01 8.4568335943321790e-02 0.0000000000000000e+00  9.2343557869319171e-01 2.4737971605138524e-02 0.0000000000000000e+00  1.0984570566097593e+00 -3.8237565890126757e-01 0.0000000000000000e+00  1.4547168053491786e+00 6.5949464683832835e-03 0.0000000000000000e+00  9.1100714110314041e-01 1.7247875962562104e-01 0.0000000000000000e+00  4.7146087081654287e-01 1.0412614761475952e-01 0.0000000000000000e+00  9.3953971113760926e-01 7.7731860401589400e-02 0.0000000000000000e+00  1.1872793948429339e+00 -3.6734584485684435e-01 0.0000000000000000e+00  1.0245261046473562e+00 -3.4644151406767777e-03 0.0000000000000000e+00  1.1183578729128110e+00 8.5237963764619173e-03 0.0000000000000000e+00  1.1430169420551313e+00 -2.1145142302622381e-02 0.0000000000