<?xml version="1.0"?>
<VTKFile type="UnstructuredGrid"  version="0.1"  >
<UnstructuredGrid>
<Piece  NumberOfPoints="4269" NumberOfCells="8234">
<Points>
<DataArray  type="Float64"  NumberOfComponents="3"  format="ascii">0 1 0  0 0 0  7.5 0 0  7.5 1 0  1.197537668119028 0.5812868930080463 0  1.2 0.55 0  1.197537668119028 0.5187131069919538 0  1.190211303259031 0.4881966011250105 0  1.178201304837674 0.4592019000520907 0  1.161803398874989 0.4324429495415054 0  1.141421356237309 0.4085786437626905 0  1.117557050458495 0.3881966011250105 0  1.090798099947909 0.3717986951623264 0  1.06180339887499 0.3597886967409693 0  1.031286893008046 0.3524623318809725 0  1 0.35 0  0.9687131069919538 0.3524623318809725 0  0.9381966011250105 0.3597886967409694 0  0.9092019000520906 0.3717986951623264 0  0.8824429495415054 0.3881966011250105 0  0.8585786437626904 0.4085786437626905 0  0.8381966011250105 0.4324429495415054 0  0.8217986951623264 0.4592019000520907 0  0.8097886967409692 0.4881966011250107 0  0.8024623318809725 0.5187131069919539 0  0.8 0.55 0  0.8024623318809725 0.5812868930080463 0  0.8097886967409693 0.6118033988749896 0  0.8217986951623264 0.6407980999479095 0  0.8381966011250105 0.6675570504584947 0  0.8585786437626906 0.6914213562373096 0  0.8824429495415054 0.7118033988749896 0  0.9092019000520907 0.7282013048376736 0  0.9381966011250106 0.7402113032590307 0  0.9687131069919539 0.7475376681190276 0  1 0.75 0  1.031286893008046 0.7475376681190276 0  1.06180339887499 0.7402113032590307 0  1.090798099947909 0.7282013048376736 0  1.117557050458495 0.7118033988749896 0  1.141421356237309 0.6914213562373095 0  1.161803398874989 0.6675570504584947 0  1.178201304837674 0.6407980999479094 0  1.190211303259031 0.6118033988749896 0  3.75 0 0  3.75 1 0  1.875 0 0  1.875 1 0  0.9375 0 0  0.9375 1 0  1.40625 1 0  5.625 1 0  5.625 0 0  2.8125 1 0  2.8125 0 0  4.6875 0 0  4.6875 1 0  6.5625 0 0  6.5625 1 0  5.15625 0.5 0  4.21875 0.5 0  2.34375 0.5 0  3.28125 0.5 0  6.09375 0.5 0  7.5 0.5 0  6.897916666666666 0.5 0  1.842708333333333 0.5 0  0 0.5 0  0.46875 0 0  5.625 0.5302734375 0  7.03125 0 0  6.09375 1 0  2.8125 0.4697265625 0  3.28125 0 0  2.34375 1 0  2.34375 0 0  3.75 0.4697265625 0  4.21875 0 0  4.21875 1 0  4.6875 0.5302734375 0  3.28125 1 0  5.15625 0 0  6.09375 0 0  5.15625 1 0  0.46875 1 0  1.40625 0 0  7.03125 1 0  0.3954638734376499 0.5975780249976004 0  6.495833333333334 0.4072265624999998 0  5.859375 0.25 0  4.905729166666666 0.26513671875 0  4.453125 0.25 0  3.531770833333333 0.73486328125 0  3.968229166666667 0.73486328125 0  2.594270833333333 0.73486328125 0  3.030729166666667 0.73486328125 0  6.328125 0.75 0  7.198958333333334 0.3125000000000002 0  7.198958333333334 0.6874999999999998 0  5.390625 0.25 0  0 0.25 0  2.109375 0.75 0  2.109375 0.25 0  1.51921323205749 0.3418883887525936 0  1.522346610178253 0.6811769608297746 0  5.375456746419271 0.75 0  4.921875 0.76513671875 0  4.437956746419271 0.75 0  3.984375 0.23486328125 0  3.500456746419271 0.25 0  2.578125 0.23486328125 0  3.046875 0.23486328125 0  5.874543253580729 0.75 0  6.642123189445656 0.6909095493086836 0  6.746354166666666 0.2391688368055553 0  0.3197109619185111 0.2850049285972083 0  6.328125 0 0  0.6313375889370429 0.2351325552547357 0  0 0.75 0  6.252283381534729 0.2693808819694041 0  0.234375 1 0  6.948437500000001 0.7543055555555555 0  0.5934018769555939 0.7694151657947577 0  1.858854166666667 0.75 0  1.858854166666667 0.25 0  1.640625 0 0  2.093229166666667 0.5 0  7.5 0.25 0  3.282227579752604 0.75 0  7.5 0.75 0  1.171875 0 0  1.303539853147731 0.2235426933121065 0  5.148177083333333 0.2575683593749998 0  2.351822916666667 0.742431640625 0  1.640625 1 0  4.202380413457425 0.7645435094236485 0  3.047822985053062 0.4701848030090332 0  2.577177014946938 0.4701848030090332 0  4.672792740482199 0.76513671875 0  4.922822985053062 0.5298151969909668 0  5.390593497949761 0.5156244924311331 0  5.610292740482199 0.76513671875 0  3.516602579752604 0.5 0  4.45496853898097 0.4865915990446593 0  5.85753146101903 0.4865915990446593 0  3.749511210123698 0.23486328125 0  3.983397420247396 0.4999999999999999 0  2.343497975411212 0.2346270081980111 0  4.219002024588788 0.2346270081980111 0  0.703125 0 0  2.8125 0.2343755075688669 0  3.046875 0 0  2.578125 0 0  3.515625 0 0  3.984375 0 0  4.453125 1 0  5.390625 1 0  2.109375 0 0  2.109375 1 0  5.625 0.2921402030705575 0  5.390625 0 0  7.265625 0 0  6.796875 0 0  6.328125 1 0  3.046875 1 0  2.578125 1 0  3.984375 1 0  3.515625 1 0  4.453125 0 0  4.921875 0 0  5.859375 0 0  0.703125 1 0  1.171875 1 0  7.265625 1 0  4.921875 1 0  5.859375 1 0  0.234375 0 0  6.796875 1 0  6.980310975276531 0.2285890127127066 0  5.149170481934885 0.772689292163473 0  3.274170481934884 0.2273107078365268 0  6.101334126790364 0.7722468376159667 0  4.678005340872584 0.3000799877067239 0  2.8125 0.6921051326382495 0  3.75 0.6921051326382495 0  0.3515624999999999 0.8134571721668546 0  0.4990405774417521 0.4070099317153735 0  0.1789273931360182 0.625 0  6.31239060814315 0.5298877111157968 0  6.456979773992304 0.1917956348713352 0  6.699870808919271 0.4406293402777773 0  1.337539480965883 0.7944303676599538 0  6.058675797563041 0.2019812164653516 0  0.8203125 0.1643029084422534 0  0.1480856513011711 0.375 0  1.090769294689562 0.1719186776982972 0  7.291088163206459 0.5 0  7.094502414936563 0.5197902199074071 0  0.6046212059042245 0.5730066483871106 0  1.707231580809486 0.6342709161352207 0  1.685961352504593 0.8193269193390785 0  1.374721602852827 0.4600373025865813 0  6.486415510043844 0.5916440776477192 0  1.5234375 0.1508863828685116 0  1.707925830421689 0.3657739208189008 0  0.1674513225045584 0.8278776664019765 0  7.138268756771176 0.1438183366439137 0  7.1484375 0.8616388888888887 0  7.328562530764119 0.819498462930605 0  4.101073710123698 0.3678637200736647 0  1.693878467219965 0.1911955120941053 0  1.577566745468488 0.5110082404081502 0  6.6796875 0.8653871806883484 0  6.498039504430512 0.825568433346395 0  0.7562556668576472 0.8333197949571929 0  4.101045914668806 0.6255195807449272 0  5.030745188395182 0.382829047309028 0  2.476364945868651 0.6095868094762166 0  2.729359843907322 0.8460525663191247 0  2.9296875 0.8740763101564099 0  3.163518307559356 0.6254622797994247 0  3.666859843907322 0.8460525663191247 0  3.8671875 0.8740763101564099 0  4.8046875 0.12592368984359 0  3.14936031382311 0.8606990583876851 0  2.4609375 0.8747622921397776 0  5.023140791101972 0.1392266772452574 0  0 0.125 0  0.1759922923594607 0.1727589856739889 0  4.5703125 0.125 0  7.327755777818006 0.1766156770456191 0  5.5078125 0.125 0  5.719712725029036 0.1460701015352787 0  4.327848962028002 0.3674169956512513 0  5.982681121544351 0.3692637923021713 0  3.398926289876302 0.6245417594909667 0  5.281756792511996 0.3827993367299961 0  2.226822645963271 0.6252438868405666 0  2.234390064317166 0.8676616584526566 0  5.2734375 0.125 0  1.96796875 0.382568359375 0  2.234651037971999 0.3674169956512511 0  1.984114583333333 0.132568359375 0  1.9921875 0.875 0  1.984114583333333 0.632568359375 0  5.748733794462357 0.8678269127183313 0  3.3984375 0.875456329184688 0  1.512925924995415 0.8582958012121853 0  1.359299372802969 0.6275861864990343 0  4.810521420483513 0.4041767793635395 0  0.2996213306116602 0.455339710363317 0  5.999933717403708 0.6388425470751088 0  5.250033449003657 0.6388713364551682 0  3.631676045992918 0.3525406652400928 0  4.3359375 0.8816499670325881 0  4.343577437052484 0.6116511299909198 0  3.375033449003656 0.3611286635448316 0  5.763152151652243 0.6249404690537395 0  4.549347848347757 0.6249404690537396 0  5.5004588702411 0.6403667365776566 0  5.976118394847484 0.8816230218343086 0  5.054722486865804 0.6338007028640954 0  3.164542163493752 0.3520519332736524 0  2.445407482032355 0.3672168403687257 0  4.8046875 0.882568359375 0  4.1015625 0.117431640625 0  2.4609375 0.117431640625 0  2.695556894938151 0.3520510350344335 0  2.929443105061849 0.3520510350344335 0  3.881979231817319 0.3670559016511187 0  3.8671875 0.117431640625 0  4.805389247695744 0.6470047893641744 0  3.399370721942191 0.1184066543556767 0  5.274370721942192 0.881593345644323 0  3.618253274934649 0.1316869186284249 0  2.6953125 0.1171877537844335 0  2.9296875 0.1171877537844335 0  2.21873344389451 0.125 0  4.3359375 0.1171877625080073 0  0.6659898565672709 0.3986593551313873 0  7.363359022954956 0.3481046411219251 0  7.363359022954956 0.6518953588780749 0  5.487719392831826 0.3828237631077121 0  2.695054578344725 0.5809158475691247 0  2.944553877887707 0.5964065668438148 0  0.3515625 0.1201898858097106 0  5.5078125 1 0  4.5703125 1 0  5.031746201297604 0.882568359375 0  3.1640625 0 0  6.2109375 1 0  6.186845385763124 0.6336356480571081 0  4.1015625 1 0  6.810399074069772 0.6495574751396682 0  0.4740615253480797 0.2509287743856873 0  7.052064303830151 0.3684417917792242 0  6.195177069665382 0.1216488332168849 0  5.72300154718324 0.4112068202852788 0  3.879157465495092 0.6111892850691246 0  3.645760045247695 0.5809158475691247 0  6.868257400485771 0.3427840810237202 0  6.612030892260864 0.1521752713064389 0  6.615666885941117 0.3151079644097221 0  4.04296875 0.8633718902669071 0  1.183031453639096 0.8486801864185936 0  6.9140625 0 0  6.859079526500421 0.1398292786950638 0  6.808232443325651 0.7957411753922057 0  6.9140625 1 0  4.544955211100143 0.3675874343205077 0  1.0546875 1 0  6.122060236165557 0.3316791557072867 0  0.5859375 0 0  5.9765625 0 0  5.44921875 0.870984788733638 0  4.51171875 0.870984788733638 0  0.7608354256382215 0.2931261274224557 0  6.386875332239937 0.3156583003094978 0  6.985654756850997 0.6147408423643147 0  6.223797257919172 0.8535621912121121 0  5.936822413218736 0.1338376546337823 0  6.23933008800134 0.4095573603773768 0  0.5414022462152697 0.1305482677949959 0  6.331360438104348 0.1370086318183389 0  0.956404929269873 0.1374266563647954 0  1.2890625 1 0  0.691305981127761 0.6764829884281737 0  3.531251607241209 0.8678916320952239 0  2.59787442813022 
[...]
<PointData  Vectors="f_71627"> 
<DataArray  type="Float64"  Name="f_71627"  NumberOfComponents="3" format="ascii">0.0000000000000000e+00 0.0000000000000000e+00 0.0000000000000000e+00  0.0000000000000000e+00 0.0000000000000000e+00 0.0000000000000000e+00  0.0000000000000000e+00 0.0000000000000000e+00 0.0000000000000000e+00  0.0000000000000000e+00 0.0000000000000000e+00 0.0000000000000000e+00  0.0000000000000000e+00 0.0000000000000000e+00 0.0000000000000000e+00  0.0000000000000000e+00 0.0000000000000000e+00 0.0000000000000000e+00  0.0000000000000000e+00 0.0000000000000000e+00 0.0000000000000000e+00  0.0000000000000000e+00 0.0000000000000000e+00 0.0000000000000000e+00  0.0000000000000000e+00 0.0000000000000000e+00 0.0000000000000000e+00  0.0000000000000000e+00 0.0000000000000000e+00 0.0000000000000000e+00  0.0000000000000000e+00 0.0000000000000000e+00 0.0000000000000000e+00  0.0000000000000000e+00 0.0000000000000000e+00 0.0000000000000000e+00  0.0000000000000000e+00 0.0000000000000000e+00 0.0000000000000000e+00  0.0000000000000000e+00 0.0000000000000000e+00 0.0000000000000000e+00  0.0000000000000000e+00 0.0000000000000000e+00 0.0000000000000000e+00  0.0000000000000000e+00 0.0000000000000000e+00 0.0000000000000000e+00  0.0000000000000000e+00 0.0000000000000000e+00 0.0000000000000000e+00  0.0000000000000000e+00 0.0000000000000000e+00 0.0000000000000000e+00  0.0000000000000000e+00 0.0000000000000000e+00 0.0000000000000000e+00  0.0000000000000000e+00 0.0000000000000000e+00 0.0000000000000000e+00  0.0000000000000000e+00 0.0000000000000000e+00 0.0000000000000000e+00  0.0000000000000000e+00 0.0000000000000000e+00 0.0000000000000000e+00  0.0000000000000000e+00 0.0000000000000000e+00 0.0000000000000000e+00  0.0000000000000000e+00 0.0000000000000000e+00 0.0000000000000000e+00  0.0000000000000000e+00 0.0000000000000000e+00 0.0000000000000000e+00  0.0000000000000000e+00 0.0000000000000000e+00 0.0000000000000000e+00  0.0000000000000000e+00 0.0000000000000000e+00 0.0000000000000000e+00  0.0000000000000000e+00 0.0000000000000000e+00 0.0000000000000000e+00  0.0000000000000000e+00 0.0000000000000000e+00 0.0000000000000000e+00  0.0000000000000000e+00 0.0000000000000000e+00 0.0000000000000000e+00  0.0000000000000000e+00 0.0000000000000000e+00 0.0000000000000000e+00  0.0000000000000000e+00 0.0000000000000000e+00 0.0000000000000000e+00  0.0000000000000000e+00 0.0000000000000000e+00 0.0000000000000000e+00  0.0000000000000000e+00 0.0000000000000000e+00 0.0000000000000000e+00  0.0000000000000000e+00 0.0000000000000000e+00 0.0000000000000000e+00  0.0000000000000000e+00 0.0000000000000000e+00 0.0000000000000000e+00  0.0000000000000000e+00 0.0000000000000000e+00 0.0000000000000000e+00  0.0000000000000000e+00 0.0000000000000000e+00 0.0000000000000000e+00  0.0000000000000000e+00 0.0000000000000000e+00 0.0000000000000000e+00  0.0000000000000000e+00 0.0000000000000000e+00 0.0000000000000000e+00  0.0000000000000000e+00 0.0000000000000000e+00 0.0000000000000000e+00  0.0000000000000000e+00 0.0000000000000000e+00 0.0000000000000000e+00  0.0000000000000000e+00 0.0000000000000000e+00 0.0000000000000000e+00  0.0000000000000000e+00 0.0000000000000000e+00 0.0000000000000000e+00  0.0000000000000000e+00 0.0000000000000000e+00 0.0000000000000000e+00  0.0000000000000000e+00 0.0000000000000000e+00 0.0000000000000000e+00  0.0000000000000000e+00 0.0000000000000000e+00 0.0000000000000000e+00  0.0000000000000000e+00 0.0000000000000000e+00 0.0000000000000000e+00  0.0000000000000000e+00 0.0000000000000000e+00 0.0000000000000000e+00  0.0000000000000000e+00 0.0000000000000000e+00 0.0000000000000000e+00  0.0000000000000000e+00 0.0000000000000000e+00 0.0000000000000000e+00  0.0000000000000000e+00 0.0000000000000000e+00 0.0000000000000000e+00  0.0000000000000000e+00 0.0000000000000000e+00 0.0000000000000000e+00  0.0000000000000000e+00 0.0000000000000000e+00 0.0000000000000000e+00  0.0000000000000000e+00 0.0000000000000000e+00 0.0000000000000000e+00  0.0000000000000000e+00 0.0000000000000000e+00 0.0000000000000000e+00  0.0000000000000000e+00 0.0000000000000000e+00 0.0000000000000000e+00  0.0000000000000000e+00 0.0000000000000000e+00 0.0000000000000000e+00  0.0000000000000000e+00 0.0000000000000000e+00 0.0000000000000000e+00  1.5581246880949964e+00 -2.5587827141363401e-02 0.0000000000000000e+00  1.6067301367692608e+00 -1.0670511879220836e+00 0.0000000000000000e+00  1.8248600048495076e+00 -6.2077730317215296e-01 0.0000000000000000e+00  1.6683812251853711e+00 -9.5246456309386995e-01 0.0000000000000000e+00  1.6151118090110483e+00 8.1209600853954100e-01 0.0000000000000000e+00  1.5000002233723673e+00 0.0000000000000000e+00 0.0000000000000000e+00  1.8565353940361815e+00 5.7416165102286876e-01 0.0000000000000000e+00  1.2047433783968731e+00 4.5511072253573781e-01 0.0000000000000000e+00  1.5000002233723673e+00 0.0000000000000000e+00 0.0000000000000000e+00  0.0000000000000000e+00 0.0000000000000000e+00 0.0000000000000000e+00  1.6378196724218921e+00 -3.9183346847304346e-01 0.0000000000000000e+00  0.0000000000000000e+00 0.0000000000000000e+00 0.0000000000000000e+00  0.0000000000000000e+00 0.0000000000000000e+00 0.0000000000000000e+00  1.5040437979387431e+00 8.4199089615303713e-01 0.0000000000000000e+00  0.0000000000000000e+00 0.0000000000000000e+00 0.0000000000000000e+00  0.0000000000000000e+00 0.0000000000000000e+00 0.0000000000000000e+00  0.0000000000000000e+00 0.0000000000000000e+00 0.0000000000000000e+00  1.5541937572822426e+00 1.1515330343899259e+00 0.0000000000000000e+00  0.0000000000000000e+00 0.0000000000000000e+00 0.0000000000000000e+00  0.0000000000000000e+00 0.0000000000000000e+00 0.0000000000000000e+00  1.5951131285956057e+00 8.0504814616003362e-01 0.0000000000000000e+00  0.0000000000000000e+00 0.0000000000000000e+00 0.0000000000000000e+00  0.0000000000000000e+00 0.0000000000000000e+00 0.0000000000000000e+00  0.0000000000000000e+00 0.0000000000000000e+00 0.0000000000000000e+00  0.0000000000000000e+00 0.0000000000000000e+00 0.0000000000000000e+00  0.0000000000000000e+00 0.0000000000000000e+00 0.0000000000000000e+00  0.0000000000000000e+00 0.0000000000000000e+00 0.0000000000000000e+00  0.0000000000000000e+00 0.0000000000000000e+00 0.0000000000000000e+00  1.3657025441325916e+00 -4.5827767875102246e-02 0.0000000000000000e+00  1.6628471876741497e+00 -6.4849145867621194e-01 0.0000000000000000e+00  1.4537666533591753e+00 5.2825412710338837e-01 0.0000000000000000e+00  1.2480746018160340e+00 5.7946484050098568e-01 0.0000000000000000e+00  1.7193194640756373e+00 -4.7565884626978233e-01 0.0000000000000000e+00  1.2637934549594596e-01 3.2229411961057147e-01 0.0000000000000000e+00  8.9099334484450843e-01 4.2063114616658054e-01 0.0000000000000000e+00  1.3172613935615668e-01 8.0722117776542557e-01 0.0000000000000000e+00  1.0610382542604635e+00 -4.0277530796432964e-01 0.0000000000000000e+00  1.2708750336711871e+00 -2.8532704605774029e-01 0.0000000000000000e+00  1.3470096909827951e+00 6.8574075535640133e-01 0.0000000000000000e+00  1.1526343908246623e+00 6.2616975612114922e-01 0.0000000000000000e+00  1.2110000913382108e+00 -5.6791336698088790e-01 0.0000000000000000e+00  1.1250001675292753e+00 0.0000000000000000e+00 0.0000000000000000e+00  6.7847384554806722e-01 -3.0974071316402602e-01 0.0000000000000000e+00  8.1855541437847779e-01 -7.0680060167013348e-01 0.0000000000000000e+00  2.2316421684680772e+00 1.0620442162248569e+00 0.0000000000000000e+00  -5.4849372055232815e-01 -1.9394743098848011e-01 0.0000000000000000e+00  7.7546535026009789e-01 -6.9368613421273595e-01 0.0000000000000000e+00  9.0125305877332740e-01 4.4556091294429212e-01 0.0000000000000000e+00  7.7273103208324090e-02 -4.0879917897595724e-01 0.0000000000000000e+00  9.1530421936123052e-01 5.3773932806321434e-01 0.0000000000000000e+00  1.9680439488050414e+00 -1.2197713303599478e-01 0.0000000000000000e+00  1.7563028385284774e+00 6.4680126768444268e-01 0.0000000000000000e+00  1.1571137765976778e+00 -4.5815613343182687e-01 0.0000000000000000e+00  6.1727293258550242e-01 8.4307320115239359e-01 0.0000000000000000e+00  8.9025845586551089e-01 -6.8081120066875944e-01 0.0000000000000000e+00  1.5472478490646344e+00 -6.8954096073639046e-02 0.0000000000000000e+00  1.2337553780817427e+00 -9.7467737888266903e-02 0.0000000000000000e+00  0.0000000000000000e+00 0.0000000000000000e+00 0.0000000000000000e+00  1.2666790930311675e+00 -3.2344144558551985e-01 0.0000000000000000e+00  1.1250001675292753e+00 0.0000000000000000e+00 0.0000000000000000e+00  8.2225880587521638e-01 8.0063733248289096e-02 0.0000000000000000e+00  0.0000000000000000e+00 0.0000000000000000e+00 0.0000000000000000e+00  5.3911353996778544e-01 9.6220783025315149e-01 0.0000000000000000e+00  1.0262282704592325e+00 1.8751338036729798e-01 0.0000000000000000e+00  1.7953990050198130e+00 -4.8048766032942636e-01 0.0000000000000000e+00  9.4868175140826405e-01 2.9541298129056354e-01 0.0000000000000000e+00  0.0000000000000000e+00 0.0000000000000000e+00 0.0000000000000000e+00  2.2096983694436281e+00 -1.6001228664696714e+00 0.0000000000000000e+00  1.1250001675292753e+00 0.0000000000000000e+00 0.0000000000000000e+00  3.7905033962132872e-01 -7.2374305075301226e-01 0.0000000000000000e+00  1.1250001675292753e+00 0.0000000000000000e+00 0.0000000000000000e+00  0.0000000000000000e+00 0.0000000000000000e+00 0.0000000000000000e+00  2.2530718559925420e+00 2.1766998228231832e-01 0.0000000000000000e+00  1.0411042355861269e+00 5.5223194340553755e-02 0.0000000000000000e+00  -2.8473910204963737e-01 -7.4014050746757654e-01 0.0000000000000000e+00  0.0000000000000000e+00 0.0000000000000000e+00 0.0000000000000000e+00  8.4923913911504656e-01 -6.0955219273321470e-01 0.0000000000000000e+00  1.5484495174180857e+00 -6.9299917330949468e-01 0.0000000000000000e+00  1.8856305644572564e+00 9.2316982876199749e-01 0.0000000000000000e+00  1.0729046679126365e-01 5.0748208045656240e-01 0.0000000000000000e+00  1.4797140844670338e+00 9.8741290048154817e-01 0.0000000000000000e+00  1.7665407507278263e+00 -9.1045172883564507e-01 0.0000000000000000e+00  4.1335737302739278e-01 -1.6686826142790601e-01 0.0000000000000000e+00  1.9835007581663331e+00 -9.6897871220231330e-02 0.0000000000000000e+00  1.7082913559403921e+00 -7.6520963940449138e-01 0.0000000000000000e+00  1.8341930745830073e+00 8.6116495995687214e-01 0.0000000000000000e+00  1.6928938706258889e+00 5.6927541342790333e-01 0.0000000000000000e+00  1.4020618097565793e+00 6.0911272708990283e-01 0.0000000000000000e+00  1.7295027610287994e+00 -3.8022534744784398e-01 0.0000000000000000e+00  9.4993183293417471e-01 -5.5627682311456095e-01 0.0000000000000000e+00  0.0000000000000000e+00 0.0000000000000000e+00 0.0000000000000000e+00  1.1752204431853257e+00 6.7174190261454603e-01 0.0000000000000000e+00  0.0000000000000000e+00 0.0000000000000000e+00 0.0000000000000000e+00  0.0000000000000000e+00 0.0000000000000000e+00 0.0000000000000000e+00  0.0000000000000000e+00 0.0000000000000000e+00 0.0000000000000000e+00  0.0000000000000000e+00 0.0000000000000000e+00 0.0000000000000000e+00  0.0000000000000000e+00 0.0000000000000000e+00 0.0000000000000000e+00  0.0000000000000000e+00 0.0000000000000000e+00 0.0000000000000000e+00  0.0000000000000000e+00 0.0000000000000000e+00 0.0000000000000000e+00  0.0000000000000000e+00 0.0000000000000000e+00 0.0000000000000000e+00  1.7841054542061072e+00 -4.4238568282819840e-01 0.0000000000000000e+00  0.0000000000000000e+00 0.0000000000000000e+00 0.0000000000000000e+00  0.0000000000000000e+00 0.0000000000000000e+00 0.0000000000000000e+00  0.0000000000000000e+00 0.0000000000000000e+00 0.0000000000000000e+00  0.0000000000000000e+00 0.0000000000000000e+00 0.0000000000000000e+00  0.0000000000000000e+00 0.0000000000000000e+00 0.0000000000000000e+00  0.0000000000000000e+00 0.0000000000000000e+00 0.0000000000000000e+00  0.0000000000000000e+00 0.0000000000000000e+00 0.0000000000000000e+00  0.0000000000000000e+00 0.0000000000000000e+00 0.0000000000000000e+00  0.0000000000000000e+00 0.0000000000000000e+00 0.0000000000000000e+00  0.0000000000000000e+00 0.0000000000000000e+00 0.0000000000000000e+00  0.0000000000000000e+00 0.0000000000000000e+00 0.0000000000000000e+00  0.0000000000000000e+00 0.0000000000000000e+00 0.0000000000000000e+00  0.0000000000000000e+00 0.0000000000000000e+00 0.0000000000000000e+00  0.0000000000000000e+00 0.0000000000000000e+00 0.0000000000000000e+00  0.0000000000000000e+00 0.0000000000000000e+00 0.0000000000000000e+00  0.0000000000000000e+00 0.0000000000000000e+00 0.0000000000000000e+00  0.0000000000000000e+00 0.0000000000000000e+00 0.0000000000000000e+00  0.0000000000000000e+00 0.0000000000000000e+00 0.0000000000000000e+00  1.6081525683475644e+00 4.9853947502822221e-01 0.0000000000000000e+00  1.1376892712907822e+00 -3.9204542516690720e-02 0.0000000000000000e+00  1.3965489829076352e+00 -4.1423304909056302e-01 0.0000000000000000e+00  1.0666769946260057e+00 5.8302356390041088e-01 0.0000000000000000e+00  1.9981777574654138e+00 6.3931627068599806e-01 0.0000000000000000e+00  1.1487710419241464e+00 9.5012849522411591e-01 0.0000000000000000e+00  5.0996702423258256e-01 1.1863905360922864e+00 0.0000000000000000e+00  9.0345244124088331e-01 1.0781793563820800e-02 0.0000000000000000e+00  1.3587734584012083e+00 -1.9720594182758039e-01 0.0000000000000000e+00  1.3947668343816539e+00 -1.6570794211110785e-02 0.0000000000000000e+00  1.6326471723364779e+00 -3.1356525302244120e-01 0.0000000000000000e+00  8.8136419399956145e-01 -4.6561179621047660e-01 0.0000000000000000e+00  1.8473987556965412e+00 -3.7801247316804149e-01 0.0000000000000000e+00  1.8737364132369116e+00 -4.3928318834941843e-01 0.0000000000000000e+00  7.8327859284747026e-01 4.6447625180702712e-01 0.0000000000000000e+00  1.4873464784608788e+00 -3.3944301803997401e-01 0.0000000000000000e+00  1.4043927307134518e+00 -2.8246506671117489e-02 0.0000000000000000e+00  2.0251524698310668e+00 -8.1477305023025137e-02 0.0000000000000000e+00  1.5789886706828660e+00 1.1481803611138313e+00 0.0000000000000000e+00  1.6434931132745183e+00 1.1135917450502775e+00 0.0000000000000000e+00  1.1450151485196207e+00 -1.5556081100095681e-02 0.0000000000000000e+00  5.8783673001415115e-01 6.1948040504605961e-01 0.0000000000000000e+00  1.5702604121155948e+00 -1.2402791318274377e-01 0.0000000000000000e+00  6.2739052130146411e-01 -3.5693928275134573e-01 0.0000000000000000e+00  1.5575611914286256e+00 -6.8840065481768642e-01 0.0000000000000000e+00  1.6458191351378406e+00 4.0759052103519350e-01 0.0000000000000000e+00  1.4246042564660444e+00 8.1531841968103913e-01 0.0000000000000000e+00  8.5135109069509940e-01 -2.0262189493483900e-03 0.0000000000000000e+00  9.4383176764192067e-01 3.1999661829349613e-01 0.0000000000000000e+00  5.7671223561879270e-01 1.0672225159241093e+00 0.0000000000000000e+00  9.5047964200629587e-01 7.3530477722880161e-01 0.0000000000000000e+00  1.3819580108685090e+00 -2.4226990153253487e-02 0.0000000000000000e+00  1.3145609185796208e+00 3.2885054020669180e-01 0.0000000000000000e+00  8.7959952188857804e-01 1.2914391893347996e+00 0.0000000000000000e+00  6.0241800227744231e-02 -1.1677153687582133e-01 0.0000000000000000e+00  5.3198590159962367e-01 -4.2538422700319917e-01 0.0000000000000000e+00  1.1135643222337694e+00 4.0280377767867259e-01 0.0000000000000000e+00  1.3972524917072455e+00 -2.8135976316760497e-01 0.0000000000000000e+00  1.4897615694700437e+00 5.0117535066201424e-01 0.0000000000000000e+00  1.2701246790817662e+00 3.5382296751276388e-01 0.0000000000000000e+00  4.8755926305871666e-01 4.3284998421876925e-01 0.0000000000000000e+00  7.5942712552575620e-01 6.9281156056017631e-02 0.0000000000000000e+00  1.2528365567872661e+00 -8.1851135700480326e-01 0.0000000000000000e+00  -2.4093015493589004e-01 3.7976204539481823e-01 0.0000000000000000e+00  5.2686524102209009e-01 2.8823592075469012e-01 0.0000000000000000e+00  9.2884608648860467e-01 1.8755189073901099e-01 0.0000000000000000e+00  3.9663745554626778e-01 -3.4572186249653869e-01 0.0000000000000000e+00  -2.0536093640630160e-01 -2.2558390046111453e-02 0.0000000000000000e+00  5.1478108842760428e-01 2.0289438576019614e-01 0.0000000000000000e+00  6.5625009772541065e-01 0.0000000000000000e+00 0.0000000000000000e+00  8.6479610578445398e-01 -3.1104294034611891e-02 0.0000000000000000e+00  1.4205955761005020e+00 1.7329636475843033e-01 0.0000000000000000e+00  3.4738562190799033e-01 8.0191528163929571e-01 0.0000000000000000e+00  7.2361365509126341e-01 -2.9291035358984396e-01 0.0000000000000000e+00  1.1858211553745783e+00 1.4237993439000102e-01 0.0000000000000000e+00  1.7673750004587458e+00 -1.0413300372441483e+00 0.0000000000000000e+00  1.4726208514910386e+00 9.4662308144851903e-01 0.0000000000000000e+00  8.2543203090510775e-01 -9.1307747484772739e-01 0.0000000000000000e+00  1.6684722670010927e+00 -4.9265875243201041e-01 0.0000000000000000e+00  8.6008347405550378e-01 -1.0837974834328106e+00 0.0000000000000000e+00  3.0976575730169681e-01 -2.2819578343113056e-01 0.0000000000000000e+00  2.9676391257938739e-01 -2.2242301941942824e-01 0.0000000000000000e+00  1.3691180880321494e+00 5.3152835996444980e-01 0.0000000000000000e+00  2.1621623790488060e+00 -1.4662063273104371e+00 0.0000000000000000e+00  4.6219260749930952e-01 -1.1221715404941305e-02 0.0000000000000000e+00  5.5655602434330265e-01 8.8079982583937025e-02 0.0000000000000000e+00  1.9834861166479885e+00 -9.7307998643034987e-01 0.0000000000000000e+00  -1.3274807448243098e-01 2.4432259568444556e-01 0.0000000000000000e+00  -1.7592680704171672e-02 -3.1199130277223519e-01 0.0000000000000000e+00  1.4304036393944115e+00 -2.4151191696642871e-01 0.0000000000000000e+00  -1.0658039131835910e+00 -8.1050234799616827e-01 0.0000000000000000e+00  1.8897371634602591e+00 1.1842572042879465e+00 0.0000000000000000e+00  1.4590937637640560e+00 -7.4722073209932488e-02 0.0000000000000000e+00  1.2616338201309127e+00 1.1244201803455038e+00 0.0000000000000000e+00  1.3865296415827715e+00 -3.8795757330960023e-01 0.0000000000000000e+00  1.9949450976665504e+00 4.4919076630688443e-01 0.0000000000000000e+00  8.6570019327882636e-02 -1.6792528778424987e-01 0.0000000000000000e+00  1.2597549177455936e+00 -1.0421914286264569e+00 0.0000000000000000e+00  2.0368314541030457e+00 -5.6398980102019969e-01 0.0000000000000000e+00  1.2099650933651012e+00 5.8566238534741866e-01 0.0000000000000000e+00  1.0222967836548127e+00 -1.4417737964026417e-01 0.0000000000000000e+00  1.2612162348490981e+00 -9.5039148291642839e-01 0.0000000000000000e+00  5.4325348771121706e-01 4.0350554569985081e-01 0.0000000000000000e+00  1.5001546719805747e+00 3.2869097195724140e-01 0.0000000000000000e+00  1.5735500564506708e+00 -6.9377392475786537e-01 0.0000000000000000e+00  2.0555993881119341e+00 2.5615996101976096e-01 0.0000000000000000e+00  2.6577223316188298e-01 3.9685308308778416e-01 0.0000000000000000e+00  2.9694356015721585e-01 -2.8701436269270169e-02 0.0000000000000000e+00  1.3305765508390990e+00 1.4916758561895405e-01 0.0000000000000000e+00  1.6844563213854911e+00 9.7022548434860045e-01 0.0000000000000000e+00  1.2713818881355388e+00 -2.8191875993378621e-02 0.0000000000000000e+00  1.3111682731098666e+00 9.0116385328582660e-01 0.0000000000000000e+00  8.4506267969667881e-01 1.2733211892918292e-01 0.0000000000000000e+00  1.0685925827057954e+00 1.1505573474816710e+00 0.0000000000000000e+00  1.1847529831318784e+00 -2.9430546384295434e-02 0.0000000000000000e+00  8.1329344266926229e-01 -8.0000137833028423e-02 0.0000000000000000e+00  1.4939142155599900e+00 9.1147560821438184e-02 0.0000000000000000e+00  8.2287095796200938e-01 2.2892729822857150e-01 0.0000000000000000e+00  4.2548685930641511e-01 3.9181055077644959e-02 0.0000000000000000e+00  9.4739349164182218e-01 -3.8853442123468113e-01 0.0000000000000000e+00  8.3872264632449611e-01 -3.9414719258837283e-01 0.0000000000000000e+00  1.2409004363103657e+00 -4.4690682064162418e-01 0.0000000000000000e+00  1.6487293707485362e+00 6.3361381960448382e-01 0.0000000000000000e+00  1.2351282662213821e+00 5.1595355203051341e-01 0.0000000000000000e+00  1.9504025157496698e+00 -8.2835220555227873e-01 0.000