<?xml version="1.0"?>
<VTKFile type="UnstructuredGrid"  version="0.1"  >
<UnstructuredGrid>
<Piece  NumberOfPoints="4269" NumberOfCells="8234">
<Points>
<DataArray  type="Float64"  NumberOfComponents="3"  format="ascii">0 1 0  0 0 0  7.5 0 0  7.5 1 0  1.197537668119028 0.5812868930080463 0  1.2 0.55 0  1.197537668119028 0.5187131069919538 0  1.190211303259031 0.4881966011250105 0  1.178201304837674 0.4592019000520907 0  1.161803398874989 0.4324429495415054 0  1.141421356237309 0.4085786437626905 0  1.117557050458495 0.3881966011250105 0  1.090798099947909 0.3717986951623264 0  1.06180339887499 0.3597886967409693 0  1.031286893008046 0.3524623318809725 0  1 0.35 0  0.9687131069919538 0.3524623318809725 0  0.9381966011250105 0.3597886967409694 0  0.9092019000520906 0.3717986951623264 0  0.8824429495415054 0.3881966011250105 0  0.8585786437626904 0.4085786437626905 0  0.8381966011250105 0.4324429495415054 0  0.8217986951623264 0.4592019000520907 0  0.8097886967409692 0.4881966011250107 0  0.8024623318809725 0.5187131069919539 0  0.8 0.55 0  0.8024623318809725 0.5812868930080463 0  0.8097886967409693 0.6118033988749896 0  0.8217986951623264 0.6407980999479095 0  0.8381966011250105 0.6675570504584947 0  0.8585786437626906 0.6914213562373096 0  0.8824429495415054 0.7118033988749896 0  0.9092019000520907 0.7282013048376736 0  0.9381966011250106 0.7402113032590307 0  0.9687131069919539 0.7475376681190276 0  1 0.75 0  1.031286893008046 0.7475376681190276 0  1.06180339887499 0.7402113032590307 0  1.090798099947909 0.7282013048376736 0  1.117557050458495 0.7118033988749896 0  1.141421356237309 0.6914213562373095 0  1.161803398874989 0.6675570504584947 0  1.178201304837674 0.6407980999479094 0  1.190211303259031 0.6118033988749896 0  3.75 0 0  3.75 1 0  1.875 0 0  1.875 1 0  0.9375 0 0  0.9375 1 0  1.40625 1 0  5.625 1 0  5.625 0 0  2.8125 1 0  2.8125 0 0  4.6875 0 0  4.6875 1 0  6.5625 0 0  6.5625 1 0  5.15625 0.5 0  4.21875 0.5 0  2.34375 0.5 0  3.28125 0.5 0  6.09375 0.5 0  7.5 0.5 0  6.897916666666666 0.5 0  1.842708333333333 0.5 0  0 0.5 0  0.46875 0 0  5.625 0.5302734375 0  7.03125 0 0  6.09375 1 0  2.8125 0.4697265625 0  3.28125 0 0  2.34375 1 0  2.34375 0 0  3.75 0.4697265625 0  4.21875 0 0  4.21875 1 0  4.6875 0.5302734375 0  3.28125 1 0  5.15625 0 0  6.09375 0 0  5.15625 1 0  0.46875 1 0  1.40625 0 0  7.03125 1 0  0.3954638734376499 0.5975780249976004 0  6.495833333333334 0.4072265624999998 0  5.859375 0.25 0  4.905729166666666 0.26513671875 0  4.453125 0.25 0  3.531770833333333 0.73486328125 0  3.968229166666667 0.73486328125 0  2.594270833333333 0.73486328125 0  3.030729166666667 0.73486328125 0  6.328125 0.75 0  7.198958333333334 0.3125000000000002 0  7.198958333333334 0.6874999999999998 0  5.390625 0.25 0  0 0.25 0  2.109375 0.75 0  2.109375 0.25 0  1.51921323205749 0.3418883887525936 0  1.522346610178253 0.6811769608297746 0  5.375456746419271 0.75 0  4.921875 0.76513671875 0  4.437956746419271 0.75 0  3.984375 0.23486328125 0  3.500456746419271 0.25 0  2.578125 0.23486328125 0  3.046875 0.23486328125 0  5.874543253580729 0.75 0  6.642123189445656 0.6909095493086836 0  6.746354166666666 0.2391688368055553 0  0.3197109619185111 0.2850049285972083 0  6.328125 0 0  0.6313375889370429 0.2351325552547357 0  0 0.75 0  6.252283381534729 0.2693808819694041 0  0.234375 1 0  6.948437500000001 0.7543055555555555 0  0.5934018769555939 0.7694151657947577 0  1.858854166666667 0.75 0  1.858854166666667 0.25 0  1.640625 0 0  2.093229166666667 0.5 0  7.5 0.25 0  3.282227579752604 0.75 0  7.5 0.75 0  1.171875 0 0  1.303539853147731 0.2235426933121065 0  5.148177083333333 0.2575683593749998 0  2.351822916666667 0.742431640625 0  1.640625 1 0  4.202380413457425 0.7645435094236485 0  3.047822985053062 0.4701848030090332 0  2.577177014946938 0.4701848030090332 0  4.672792740482199 0.76513671875 0  4.922822985053062 0.5298151969909668 0  5.390593497949761 0.5156244924311331 0  5.610292740482199 0.76513671875 0  3.516602579752604 0.5 0  4.45496853898097 0.4865915990446593 0  5.85753146101903 0.4865915990446593 0  3.749511210123698 0.23486328125 0  3.983397420247396 0.4999999999999999 0  2.343497975411212 0.2346270081980111 0  4.219002024588788 0.2346270081980111 0  0.703125 0 0  2.8125 0.2343755075688669 0  3.046875 0 0  2.578125 0 0  3.515625 0 0  3.984375 0 0  4.453125 1 0  5.390625 1 0  2.109375 0 0  2.109375 1 0  5.625 0.2921402030705575 0  5.390625 0 0  7.265625 0 0  6.796875 0 0  6.328125 1 0  3.046875 1 0  2.578125 1 0  3.984375 1 0  3.515625 1 0  4.453125 0 0  4.921875 0 0  5.859375 0 0  0.703125 1 0  1.171875 1 0  7.265625 1 0  4.921875 1 0  5.859375 1 0  0.234375 0 0  6.796875 1 0  6.980310975276531 0.2285890127127066 0  5.149170481934885 0.772689292163473 0  3.274170481934884 0.2273107078365268 0  6.101334126790364 0.7722468376159667 0  4.678005340872584 0.3000799877067239 0  2.8125 0.6921051326382495 0  3.75 0.6921051326382495 0  0.3515624999999999 0.8134571721668546 0  0.4990405774417521 0.4070099317153735 0  0.1789273931360182 0.625 0  6.31239060814315 0.5298877111157968 0  6.456979773992304 0.1917956348713352 0  6.699870808919271 0.4406293402777773 0  1.337539480965883 0.7944303676599538 0  6.058675797563041 0.2019812164653516 0  0.8203125 0.1643029084422534 0  0.1480856513011711 0.375 0  1.090769294689562 0.1719186776982972 0  7.291088163206459 0.5 0  7.094502414936563 0.5197902199074071 0  0.6046212059042245 0.5730066483871106 0  1.707231580809486 0.6342709161352207 0  1.685961352504593 0.8193269193390785 0  1.374721602852827 0.4600373025865813 0  6.486415510043844 0.5916440776477192 0  1.5234375 0.1508863828685116 0  1.707925830421689 0.3657739208189008 0  0.1674513225045584 0.8278776664019765 0  7.138268756771176 0.1438183366439137 0  7.1484375 0.8616388888888887 0  7.328562530764119 0.819498462930605 0  4.101073710123698 0.3678637200736647 0  1.693878467219965 0.1911955120941053 0  1.577566745468488 0.5110082404081502 0  6.6796875 0.8653871806883484 0  6.498039504430512 0.825568433346395 0  0.7562556668576472 0.8333197949571929 0  4.101045914668806 0.6255195807449272 0  5.030745188395182 0.382829047309028 0  2.476364945868651 0.6095868094762166 0  2.729359843907322 0.8460525663191247 0  2.9296875 0.8740763101564099 0  3.163518307559356 0.6254622797994247 0  3.666859843907322 0.8460525663191247 0  3.8671875 0.8740763101564099 0  4.8046875 0.12592368984359 0  3.14936031382311 0.8606990583876851 0  2.4609375 0.8747622921397776 0  5.023140791101972 0.1392266772452574 0  0 0.125 0  0.1759922923594607 0.1727589856739889 0  4.5703125 0.125 0  7.327755777818006 0.1766156770456191 0  5.5078125 0.125 0  5.719712725029036 0.1460701015352787 0  4.327848962028002 0.3674169956512513 0  5.982681121544351 0.3692637923021713 0  3.398926289876302 0.6245417594909667 0  5.281756792511996 0.3827993367299961 0  2.226822645963271 0.6252438868405666 0  2.234390064317166 0.8676616584526566 0  5.2734375 0.125 0  1.96796875 0.382568359375 0  2.234651037971999 0.3674169956512511 0  1.984114583333333 0.132568359375 0  1.9921875 0.875 0  1.984114583333333 0.632568359375 0  5.748733794462357 0.8678269127183313 0  3.3984375 0.875456329184688 0  1.512925924995415 0.8582958012121853 0  1.359299372802969 0.6275861864990343 0  4.810521420483513 0.4041767793635395 0  0.2996213306116602 0.455339710363317 0  5.999933717403708 0.6388425470751088 0  5.250033449003657 0.6388713364551682 0  3.631676045992918 0.3525406652400928 0  4.3359375 0.8816499670325881 0  4.343577437052484 0.6116511299909198 0  3.375033449003656 0.3611286635448316 0  5.763152151652243 0.6249404690537395 0  4.549347848347757 0.6249404690537396 0  5.5004588702411 0.6403667365776566 0  5.976118394847484 0.8816230218343086 0  5.054722486865804 0.6338007028640954 0  3.164542163493752 0.3520519332736524 0  2.445407482032355 0.3672168403687257 0  4.8046875 0.882568359375 0  4.1015625 0.117431640625 0  2.4609375 0.117431640625 0  2.695556894938151 0.3520510350344335 0  2.929443105061849 0.3520510350344335 0  3.881979231817319 0.3670559016511187 0  3.8671875 0.117431640625 0  4.805389247695744 0.6470047893641744 0  3.399370721942191 0.1184066543556767 0  5.274370721942192 0.881593345644323 0  3.618253274934649 0.1316869186284249 0  2.6953125 0.1171877537844335 0  2.9296875 0.1171877537844335 0  2.21873344389451 0.125 0  4.3359375 0.1171877625080073 0  0.6659898565672709 0.3986593551313873 0  7.363359022954956 0.3481046411219251 0  7.363359022954956 0.6518953588780749 0  5.487719392831826 0.3828237631077121 0  2.695054578344725 0.5809158475691247 0  2.944553877887707 0.5964065668438148 0  0.3515625 0.1201898858097106 0  5.5078125 1 0  4.5703125 1 0  5.031746201297604 0.882568359375 0  3.1640625 0 0  6.2109375 1 0  6.186845385763124 0.6336356480571081 0  4.1015625 1 0  6.810399074069772 0.6495574751396682 0  0.4740615253480797 0.2509287743856873 0  7.052064303830151 0.3684417917792242 0  6.195177069665382 0.1216488332168849 0  5.72300154718324 0.4112068202852788 0  3.879157465495092 0.6111892850691246 0  3.645760045247695 0.5809158475691247 0  6.868257400485771 0.3427840810237202 0  6.612030892260864 0.1521752713064389 0  6.615666885941117 0.3151079644097221 0  4.04296875 0.8633718902669071 0  1.183031453639096 0.8486801864185936 0  6.9140625 0 0  6.859079526500421 0.1398292786950638 0  6.808232443325651 0.7957411753922057 0  6.9140625 1 0  4.544955211100143 0.3675874343205077 0  1.0546875 1 0  6.122060236165557 0.3316791557072867 0  0.5859375 0 0  5.9765625 0 0  5.44921875 0.870984788733638 0  4.51171875 0.870984788733638 0  0.7608354256382215 0.2931261274224557 0  6.386875332239937 0.3156583003094978 0  6.985654756850997 0.6147408423643147 0  6.223797257919172 0.8535621912121121 0  5.936822413218736 0.1338376546337823 0  6.23933008800134 0.4095573603773768 0  0.5414022462152697 0.1305482677949959 0  6.331360438104348 0.1370086318183389 0  0.956404929269873 0.1374266563647954 0  1.2890625 1 0  0.691305981127761 0.6764829884281737 0  3.531251607241209 0.8678916320952239 0  2.59787442813022 
[...]
<PointData  Vectors="f_71627"> 
<DataArray  type="Float64"  Name="f_71627"  NumberOfComponents="3" format="ascii">0.0000000000000000e+00 0.0000000000000000e+00 0.0000000000000000e+00  0.0000000000000000e+00 0.0000000000000000e+00 0.0000000000000000e+00  0.0000000000000000e+00 0.0000000000000000e+00 0.0000000000000000e+00  0.0000000000000000e+00 0.0000000000000000e+00 0.0000000000000000e+00  0.0000000000000000e+00 0.0000000000000000e+00 0.0000000000000000e+00  0.0000000000000000e+00 0.0000000000000000e+00 0.0000000000000000e+00  0.0000000000000000e+00 0.0000000000000000e+00 0.0000000000000000e+00  0.0000000000000000e+00 0.0000000000000000e+00 0.0000000000000000e+00  0.0000000000000000e+00 0.0000000000000000e+00 0.0000000000000000e+00  0.0000000000000000e+00 0.0000000000000000e+00 0.0000000000000000e+00  0.0000000000000000e+00 0.0000000000000000e+00 0.0000000000000000e+00  0.0000000000000000e+00 0.0000000000000000e+00 0.0000000000000000e+00  0.0000000000000000e+00 0.0000000000000000e+00 0.0000000000000000e+00  0.0000000000000000e+00 0.0000000000000000e+00 0.0000000000000000e+00  0.0000000000000000e+00 0.0000000000000000e+00 0.0000000000000000e+00  0.0000000000000000e+00 0.0000000000000000e+00 0.0000000000000000e+00  0.0000000000000000e+00 0.0000000000000000e+00 0.0000000000000000e+00  0.0000000000000000e+00 0.0000000000000000e+00 0.0000000000000000e+00  0.0000000000000000e+00 0.0000000000000000e+00 0.0000000000000000e+00  0.0000000000000000e+00 0.0000000000000000e+00 0.0000000000000000e+00  0.0000000000000000e+00 0.0000000000000000e+00 0.0000000000000000e+00  0.0000000000000000e+00 0.0000000000000000e+00 0.0000000000000000e+00  0.0000000000000000e+00 0.0000000000000000e+00 0.0000000000000000e+00  0.0000000000000000e+00 0.0000000000000000e+00 0.0000000000000000e+00  0.0000000000000000e+00 0.0000000000000000e+00 0.0000000000000000e+00  0.0000000000000000e+00 0.0000000000000000e+00 0.0000000000000000e+00  0.0000000000000000e+00 0.0000000000000000e+00 0.0000000000000000e+00  0.0000000000000000e+00 0.0000000000000000e+00 0.0000000000000000e+00  0.0000000000000000e+00 0.0000000000000000e+00 0.0000000000000000e+00  0.0000000000000000e+00 0.0000000000000000e+00 0.0000000000000000e+00  0.0000000000000000e+00 0.0000000000000000e+00 0.0000000000000000e+00  0.0000000000000000e+00 0.0000000000000000e+00 0.0000000000000000e+00  0.0000000000000000e+00 0.0000000000000000e+00 0.0000000000000000e+00  0.0000000000000000e+00 0.0000000000000000e+00 0.0000000000000000e+00  0.0000000000000000e+00 0.0000000000000000e+00 0.0000000000000000e+00  0.0000000000000000e+00 0.0000000000000000e+00 0.0000000000000000e+00  0.0000000000000000e+00 0.0000000000000000e+00 0.0000000000000000e+00  0.0000000000000000e+00 0.0000000000000000e+00 0.0000000000000000e+00  0.0000000000000000e+00 0.0000000000000000e+00 0.0000000000000000e+00  0.0000000000000000e+00 0.0000000000000000e+00 0.0000000000000000e+00  0.0000000000000000e+00 0.0000000000000000e+00 0.0000000000000000e+00  0.0000000000000000e+00 0.0000000000000000e+00 0.0000000000000000e+00  0.0000000000000000e+00 0.0000000000000000e+00 0.0000000000000000e+00  0.0000000000000000e+00 0.0000000000000000e+00 0.0000000000000000e+00  0.0000000000000000e+00 0.0000000000000000e+00 0.0000000000000000e+00  0.0000000000000000e+00 0.0000000000000000e+00 0.0000000000000000e+00  0.0000000000000000e+00 0.0000000000000000e+00 0.0000000000000000e+00  0.0000000000000000e+00 0.0000000000000000e+00 0.0000000000000000e+00  0.0000000000000000e+00 0.0000000000000000e+00 0.0000000000000000e+00  0.0000000000000000e+00 0.0000000000000000e+00 0.0000000000000000e+00  0.0000000000000000e+00 0.0000000000000000e+00 0.0000000000000000e+00  0.0000000000000000e+00 0.0000000000000000e+00 0.0000000000000000e+00  0.0000000000000000e+00 0.0000000000000000e+00 0.0000000000000000e+00  0.0000000000000000e+00 0.0000000000000000e+00 0.0000000000000000e+00  0.0000000000000000e+00 0.0000000000000000e+00 0.0000000000000000e+00  0.0000000000000000e+00 0.0000000000000000e+00 0.0000000000000000e+00  0.0000000000000000e+00 0.0000000000000000e+00 0.0000000000000000e+00  0.0000000000000000e+00 0.0000000000000000e+00 0.0000000000000000e+00  0.0000000000000000e+00 0.0000000000000000e+00 0.0000000000000000e+00  1.6609259610642786e+00 8.1823660859682201e-01 0.0000000000000000e+00  1.6350764214393745e+00 9.6447482688276398e-01 0.0000000000000000e+00  1.4865328438781493e+00 -2.9902898421706908e-01 0.0000000000000000e+00  1.4034115446127806e+00 3.4227426013381212e-01 0.0000000000000000e+00  1.5836146648375271e+00 -7.1352904615491686e-01 0.0000000000000000e+00  1.5000002143735882e+00 0.0000000000000000e+00 0.0000000000000000e+00  1.1926082882680473e+00 1.6413044915023017e-01 0.0000000000000000e+00  1.5029734742671639e+00 1.2861467515469733e+00 0.0000000000000000e+00  1.5000002143735882e+00 0.0000000000000000e+00 0.0000000000000000e+00  0.0000000000000000e+00 0.0000000000000000e+00 0.0000000000000000e+00  1.5121650261203530e+00 -3.2101357848617762e-01 0.0000000000000000e+00  0.0000000000000000e+00 0.0000000000000000e+00 0.0000000000000000e+00  0.0000000000000000e+00 0.0000000000000000e+00 0.0000000000000000e+00  1.8747903075355392e+00 2.8918804702197731e-01 0.0000000000000000e+00  0.0000000000000000e+00 0.0000000000000000e+00 0.0000000000000000e+00  0.0000000000000000e+00 0.0000000000000000e+00 0.0000000000000000e+00  0.0000000000000000e+00 0.0000000000000000e+00 0.0000000000000000e+00  2.1227221695316345e+00 -4.7495502992309829e-01 0.0000000000000000e+00  0.0000000000000000e+00 0.0000000000000000e+00 0.0000000000000000e+00  0.0000000000000000e+00 0.0000000000000000e+00 0.0000000000000000e+00  1.6504269732949122e+00 -9.8021523347993844e-01 0.0000000000000000e+00  0.0000000000000000e+00 0.0000000000000000e+00 0.0000000000000000e+00  0.0000000000000000e+00 0.0000000000000000e+00 0.0000000000000000e+00  0.0000000000000000e+00 0.0000000000000000e+00 0.0000000000000000e+00  0.0000000000000000e+00 0.0000000000000000e+00 0.0000000000000000e+00  0.0000000000000000e+00 0.0000000000000000e+00 0.0000000000000000e+00  0.0000000000000000e+00 0.0000000000000000e+00 0.0000000000000000e+00  0.0000000000000000e+00 0.0000000000000000e+00 0.0000000000000000e+00  1.3764022332520629e+00 4.3120385920846813e-02 0.0000000000000000e+00  1.6148527979778908e+00 8.7269026673955574e-01 0.0000000000000000e+00  1.2122657093204918e+00 -4.7967793417011972e-01 0.0000000000000000e+00  1.5908184339338525e+00 -6.2826289059004048e-01 0.0000000000000000e+00  6.8817773120091974e-01 9.3161858734302688e-02 0.0000000000000000e+00  4.2439360750322985e-01 -1.0702061753235899e+00 0.0000000000000000e+00  4.2768065744084355e-01 7.3374036941966525e-01 0.0000000000000000e+00  5.0297455731252216e-01 -1.2461168855418316e+00 0.0000000000000000e+00  7.8168962000553377e-01 8.9439022196972173e-01 0.0000000000000000e+00  4.1411882330909033e-01 3.6836707922120654e-01 0.0000000000000000e+00  1.1108458623034816e+00 -2.9002987936007946e-01 0.0000000000000000e+00  1.2712929796563297e+00 -1.3720356482831056e-01 0.0000000000000000e+00  7.5019582951873498e-01 4.4963718720319534e-01 0.0000000000000000e+00  1.1250001607801912e+00 0.0000000000000000e+00 0.0000000000000000e+00  1.0954103902552830e+00 2.0051191572049087e-01 0.0000000000000000e+00  1.0423292850407107e+00 1.3548061284293689e-01 0.0000000000000000e+00  1.2548687488221957e+00 -3.5472518976752276e-01 0.0000000000000000e+00  1.2486156037714615e+00 -1.3458607577303678e+00 0.0000000000000000e+00  1.0614071011693245e+00 5.2944894693116618e-01 0.0000000000000000e+00  2.8946982889762729e-01 -3.8912026456490950e-01 0.0000000000000000e+00  1.4706463823675349e+00 1.9559366676361437e-01 0.0000000000000000e+00  1.5057098260482664e+00 3.4315553352962369e-01 0.0000000000000000e+00  1.1364655674062973e+00 -5.3339050459977400e-01 0.0000000000000000e+00  1.5191714643701297e+00 -1.4595628932679552e+00 0.0000000000000000e+00  1.3085093446785561e+00 8.1879768085808302e-01 0.0000000000000000e+00  8.2115366986716531e-01 -5.0279614211058532e-01 0.0000000000000000e+00  1.0006244217838582e+00 8.8887977935804330e-01 0.0000000000000000e+00  1.0427000572684058e+00 2.1025352405209857e-01 0.0000000000000000e+00  1.2111418627267303e+00 -3.5996158691838157e-02 0.0000000000000000e+00  0.0000000000000000e+00 0.0000000000000000e+00 0.0000000000000000e+00  1.1571376941894345e+00 -2.5960439273495112e-01 0.0000000000000000e+00  1.1250001607801912e+00 0.0000000000000000e+00 0.0000000000000000e+00  1.8333598589135123e+00 3.4301002764402809e-02 0.0000000000000000e+00  0.0000000000000000e+00 0.0000000000000000e+00 0.0000000000000000e+00  1.7024466883598188e+00 -2.9503503883484200e-01 0.0000000000000000e+00  1.1299816175600330e+00 2.7043459064554176e-01 0.0000000000000000e+00  3.4678821948006328e-01 5.0339973706170149e-01 0.0000000000000000e+00  1.9248302217106597e+00 7.4260759462629022e-01 0.0000000000000000e+00  0.0000000000000000e+00 0.0000000000000000e+00 0.0000000000000000e+00  1.3764612244983161e+00 5.1272422227017356e-01 0.0000000000000000e+00  1.1250001607801912e+00 0.0000000000000000e+00 0.0000000000000000e+00  1.3349411176870520e+00 -2.0492638225206351e-02 0.0000000000000000e+00  1.1250001607801912e+00 0.0000000000000000e+00 0.0000000000000000e+00  0.0000000000000000e+00 0.0000000000000000e+00 0.0000000000000000e+00  2.0695695680468225e+00 -6.6198500362487228e-02 0.0000000000000000e+00  1.7669432966500618e+00 6.2022878690588246e-01 0.0000000000000000e+00  1.0611699952556537e+00 -1.9272053215411067e-01 0.0000000000000000e+00  0.0000000000000000e+00 0.0000000000000000e+00 0.0000000000000000e+00  8.7564127764288835e-01 6.7248423950234637e-01 0.0000000000000000e+00  1.5352757546786260e+00 1.3435434748347008e+00 0.0000000000000000e+00  1.8018820589179680e+00 -1.1590041941623312e+00 0.0000000000000000e+00  1.1635405624665789e+00 -6.1783058558500958e-01 0.0000000000000000e+00  1.2912062144519758e+00 -7.2996148353942025e-01 0.0000000000000000e+00  1.5800377329993442e+00 9.5510011955685103e-01 0.0000000000000000e+00  1.2825663251491151e+00 -2.2357577899754885e-01 0.0000000000000000e+00  1.4896810934653817e+00 -1.2242345546091713e+00 0.0000000000000000e+00  1.4645309876430770e+00 2.8675489404558280e-01 0.0000000000000000e+00  1.4790106700530123e+00 -8.0296418861766539e-01 0.0000000000000000e+00  1.7090139918828648e+00 -1.2037410998132854e-01 0.0000000000000000e+00  1.7990469123907067e+00 5.9657746635153519e-01 0.0000000000000000e+00  9.5728633805171714e-01 3.2930970779479302e-01 0.0000000000000000e+00  8.8259802933127962e-01 5.2761279625979440e-01 0.0000000000000000e+00  0.0000000000000000e+00 0.0000000000000000e+00 0.0000000000000000e+00  1.8816398468897448e+00 1.5787183009263592e-01 0.0000000000000000e+00  0.0000000000000000e+00 0.0000000000000000e+00 0.0000000000000000e+00  0.0000000000000000e+00 0.0000000000000000e+00 0.0000000000000000e+00  0.0000000000000000e+00 0.0000000000000000e+00 0.0000000000000000e+00  0.0000000000000000e+00 0.0000000000000000e+00 0.0000000000000000e+00  0.0000000000000000e+00 0.0000000000000000e+00 0.0000000000000000e+00  0.0000000000000000e+00 0.0000000000000000e+00 0.0000000000000000e+00  0.0000000000000000e+00 0.0000000000000000e+00 0.0000000000000000e+00  0.0000000000000000e+00 0.0000000000000000e+00 0.0000000000000000e+00  1.0507368575184348e+00 -2.8002950510666119e-01 0.0000000000000000e+00  0.0000000000000000e+00 0.0000000000000000e+00 0.0000000000000000e+00  0.0000000000000000e+00 0.0000000000000000e+00 0.0000000000000000e+00  0.0000000000000000e+00 0.0000000000000000e+00 0.0000000000000000e+00  0.0000000000000000e+00 0.0000000000000000e+00 0.0000000000000000e+00  0.0000000000000000e+00 0.0000000000000000e+00 0.0000000000000000e+00  0.0000000000000000e+00 0.0000000000000000e+00 0.0000000000000000e+00  0.0000000000000000e+00 0.0000000000000000e+00 0.0000000000000000e+00  0.0000000000000000e+00 0.0000000000000000e+00 0.0000000000000000e+00  0.0000000000000000e+00 0.0000000000000000e+00 0.0000000000000000e+00  0.0000000000000000e+00 0.0000000000000000e+00 0.0000000000000000e+00  0.0000000000000000e+00 0.0000000000000000e+00 0.0000000000000000e+00  0.0000000000000000e+00 0.0000000000000000e+00 0.0000000000000000e+00  0.0000000000000000e+00 0.0000000000000000e+00 0.0000000000000000e+00  0.0000000000000000e+00 0.0000000000000000e+00 0.0000000000000000e+00  0.0000000000000000e+00 0.0000000000000000e+00 0.0000000000000000e+00  0.0000000000000000e+00 0.0000000000000000e+00 0.0000000000000000e+00  0.0000000000000000e+00 0.0000000000000000e+00 0.0000000000000000e+00  0.0000000000000000e+00 0.0000000000000000e+00 0.0000000000000000e+00  8.7770041480553129e-01 2.7797229988608785e-01 0.0000000000000000e+00  3.6612318036726166e-01 7.1499204159474572e-01 0.0000000000000000e+00  7.9536804349526746e-01 -3.7814934405799300e-01 0.0000000000000000e+00  2.3786941613856000e-01 -3.2886549570111556e-01 0.0000000000000000e+00  1.1075855874497331e+00 -1.0493116322603915e+00 0.0000000000000000e+00  3.7336974585772448e-01 5.7525142668659235e-01 0.0000000000000000e+00  8.1177054232014867e-01 -7.5946213471688628e-01 0.0000000000000000e+00  9.4597505642642754e-01 6.2030054413004486e-02 0.0000000000000000e+00  1.3225903372057415e+00 -9.2537205298779165e-02 0.0000000000000000e+00  1.3963011924123629e+00 2.2095330089516713e-02 0.0000000000000000e+00  1.3874559533501216e+00 1.9190947200687569e-01 0.0000000000000000e+00  1.3979332945210636e+00 3.4744659661783739e-01 0.0000000000000000e+00  1.2506010211807168e+00 5.0359321154950598e-01 0.0000000000000000e+00  2.0680314364271406e+00 -7.0931028919748806e-01 0.0000000000000000e+00  1.3979139492542034e+00 -3.4719629233156946e-01 0.0000000000000000e+00  1.3086946997718862e+00 -3.2021546748789026e-01 0.0000000000000000e+00  1.4022206198170173e+00 -3.0742159446205949e-04 0.0000000000000000e+00  1.8466078531332337e+00 -1.7170790152088400e-01 0.0000000000000000e+00  1.5811978979194994e+00 1.1773426010118493e-01 0.0000000000000000e+00  1.5612878442276987e+00 -6.6764471538863890e-02 0.0000000000000000e+00  1.1652185993526425e+00 1.1629783379147200e-01 0.0000000000000000e+00  6.5450663477198689e-02 -7.2257480211314484e-01 0.0000000000000000e+00  7.3161258782770944e-01 7.9811996616221455e-03 0.0000000000000000e+00  -1.0420075513386224e+00 -3.5422065413071191e-01 0.0000000000000000e+00  1.3308882517677003e+00 8.8865137335588884e-01 0.0000000000000000e+00  2.0586995486651598e+00 1.7086815156394999e-01 0.0000000000000000e+00  2.1009434388397343e+00 6.8717535950104902e-01 0.0000000000000000e+00  8.6219034374340242e-01 2.3928703302486424e-02 0.0000000000000000e+00  2.1182586801145653e-01 1.8187928435752357e-02 0.0000000000000000e+00  9.2446156854553818e-01 -8.1733002567541860e-02 0.0000000000000000e+00  8.2161954156711259e-01 -9.9213019116303883e-02 0.0000000000000000e+00  1.5733293077345349e+00 6.6705369872190345e-01 0.0000000000000000e+00  2.0958850553959301e+00 5.4585340728410636e-01 0.0000000000000000e+00  4.6292789699582164e-02 -1.4947510163032725e+00 0.0000000000000000e+00  1.1563111454129766e+00 1.9567856388213223e-01 0.0000000000000000e+00  4.1876559923712797e-01 5.7529645139583752e-01 0.0000000000000000e+00  1.3083222546240472e+00 4.7143116097146803e-01 0.0000000000000000e+00  1.2910046059646678e+00 1.0586083251339278e+00 0.0000000000000000e+00  1.8776793985103926e+00 -8.2305837618818559e-02 0.0000000000000000e+00  1.3036464841445465e+00 -7.9648831443851853e-01 0.0000000000000000e+00  -3.5504369766490240e-01 -1.1039604547074119e-01 0.0000000000000000e+00  1.0257618539496992e-01 3.9351676763463972e-01 0.0000000000000000e+00  1.1942921170495515e+00 8.5999965380973420e-01 0.0000000000000000e+00  -6.5145040409067001e-01 -4.8402583053692988e-01 0.0000000000000000e+00  -4.2127831370402846e-01 2.5242826354925074e-01 0.0000000000000000e+00  9.0569836074642862e-01 -3.5185619388754463e-01 0.0000000000000000e+00  7.8133425462994255e-01 5.0957882085555428e-01 0.0000000000000000e+00  5.5798763434522425e-01 -2.4660371671054576e-01 0.0000000000000000e+00  1.4954656437958838e+00 1.4700175899556517e-01 0.0000000000000000e+00  6.5625009378844490e-01 0.0000000000000000e+00 0.0000000000000000e+00  8.5629293477206814e-01 -7.6443891271029797e-03 0.0000000000000000e+00  2.2067478045058578e-01 -2.4862099658096842e-01 0.0000000000000000e+00  2.2606885913219563e-01 -2.1027629472641199e-01 0.0000000000000000e+00  2.7906556032104551e-01 9.4676425758305982e-02 0.0000000000000000e+00  5.0932986924014745e-01 -2.2751593857570235e-01 0.0000000000000000e+00  1.2653477469139423e+00 6.5258898803500032e-01 0.0000000000000000e+00  1.6705358476952525e+00 -6.1422047496059939e-01 0.0000000000000000e+00  1.3695505878490182e+00 -7.7203539199169957e-01 0.0000000000000000e+00  1.6167170844089709e+00 1.0546992653072951e+00 0.0000000000000000e+00  1.2719943242880911e+00 3.2058987857247687e-02 0.0000000000000000e+00  7.8036233287624757e-01 3.8580638532838205e-02 0.0000000000000000e+00  7.4139482931446354e-01 2.1415899817191603e-01 0.0000000000000000e+00  1.6586352314503370e+00 8.4281792518377674e-01 0.0000000000000000e+00  1.3837830532670521e+00 2.2696355329694745e-01 0.0000000000000000e+00  6.5586124299437543e-01 -4.2055825363783522e-02 0.0000000000000000e+00  1.0968674743403022e+00 8.2375977370466993e-02 0.0000000000000000e+00  9.7544538359950295e-01 8.4715947636852373e-01 0.0000000000000000e+00  7.7245310933123501e-01 -1.3264195989278069e-01 0.0000000000000000e+00  9.6885549435816798e-01 -1.4998603570519051e-01 0.0000000000000000e+00  1.2194098492108889e+00 -5.0635821987283391e-01 0.0000000000000000e+00  8.5598266625869002e-01 -3.9146593927016976e-01 0.0000000000000000e+00  1.4397347957842030e+00 -1.1014109794812699e+00 0.0000000000000000e+00  1.4506258062451591e+00 -5.3939527917185297e-03 0.0000000000000000e+00  9.8651992515429909e-01 -9.4484500492402135e-01 0.0000000000000000e+00  1.2236856299723622e+00 1.1724157709842826e+00 0.0000000000000000e+00  1.7262118295345110e+00 -7.5622431066324058e-01 0.0000000000000000e+00  8.2019726423950134e-01 3.9981245863697744e-02 0.0000000000000000e+00  1.4147672059242900e+00 6.6862818382907141e-01 0.0000000000000000e+00  1.2510630022735536e+00 -4.6129317256928187e-01 0.0000000000000000e+00  1.4197052673391017e+00 -5.8049386548564696e-01 0.0000000000000000e+00  1.6991796982625933e+00 -3.9658625008439569e-01 0.0000000000000000e+00  1.4357533634365875e+00 2.7509961789511261e-01 0.0000000000000000e+00  3.8066370344069195e-01 -1.3806576357598116e-01 0.0000000000000000e+00  1.0914093961099229e+00 2.1846602956133729e-01 0.0000000000000000e+00  1.5741653728645248e+00 1.0086428897593802e+00 0.0000000000000000e+00  2.1163588176253105e+00 -6.6991342389978037e-01 0.0000000000000000e+00  4.1110611847185752e-01 -1.1167642918115885e-01 0.0000000000000000e+00  8.0522039729502681e-01 8.4406687107758699e-02 0.0000000000000000e+00  4.4292834268996037e-02 -4.1078862572709368e-01 0.0000000000000000e+00  1.8915716764886528e+00 -8.9702262023045876e-01 0.0000000000000000e+00  1.8505862592859230e+00 1.0487810461293929e+00 0.0000000000000000e+00  2.0754727427208199e+00 1.6271480188695478e-01 0.0000000000000000e+00  1.1331117531891586e+00 1.9301097289197713e-01 0.0000000000000000e+00  1.1677923449238587e+00 -1.0732676770469793e+00 0.0000000000000000e+00  5.6373102419493382e-01 -2.6507597085301643e-01 0.0000000000000000e+00  4.7344498707915544e-01 3.9992806582280332e-01 0.0000000000000000e+00  9.4783606094133166e-01 -1.6875509304029926e-01 0.0000000000000000e+00  1.3781474124822746e+00 -4.2038401416806004e-01 0.0000000000000000e+00  1.3335128838148127e+00 2.2619128412197981e-01 0.0000000000000000e+00  4.6836245959535433e-01 2.4029711804872661e-01 0.0000000000000000e+00  2.7797265512030478e-01 1.6913995186150924e-01 0.0000000000000000e+00  1.1660235186969510e+00 -3.2518252285725302e-01 0.0000000000000000e+00  1.0987027599446793e+00 -1.5789447560791994e-01 0.0000000000000000e+00  1.1062585437595898e+00 -1.3079165761415967e-01 0.0000000000000000e+00  1.3769993409708052e+00 3.0032579234472284e-01 0.00000000000