<?xml version="1.0"?>
<VTKFile type="UnstructuredGrid"  version="0.1"  >
<UnstructuredGrid>
<Piece  NumberOfPoints="4269" NumberOfCells="8234">
<Points>
<DataArray  type="Float64"  NumberOfComponents="3"  format="ascii">0 1 0  0 0 0  7.5 0 0  7.5 1 0  1.197537668119028 0.5812868930080463 0  1.2 0.55 0  1.197537668119028 0.5187131069919538 0  1.190211303259031 0.4881966011250105 0  1.178201304837674 0.4592019000520907 0  1.161803398874989 0.4324429495415054 0  1.141421356237309 0.4085786437626905 0  1.117557050458495 0.3881966011250105 0  1.090798099947909 0.3717986951623264 0  1.06180339887499 0.3597886967409693 0  1.031286893008046 0.3524623318809725 0  1 0.35 0  0.9687131069919538 0.3524623318809725 0  0.9381966011250105 0.3597886967409694 0  0.9092019000520906 0.3717986951623264 0  0.8824429495415054 0.3881966011250105 0  0.8585786437626904 0.4085786437626905 0  0.8381966011250105 0.4324429495415054 0  0.8217986951623264 0.4592019000520907 0  0.8097886967409692 0.4881966011250107 0  0.8024623318809725 0.5187131069919539 0  0.8 0.55 0  0.8024623318809725 0.5812868930080463 0  0.8097886967409693 0.6118033988749896 0  0.8217986951623264 0.6407980999479095 0  0.8381966011250105 0.6675570504584947 0  0.8585786437626906 0.6914213562373096 0  0.8824429495415054 0.7118033988749896 0  0.9092019000520907 0.7282013048376736 0  0.9381966011250106 0.7402113032590307 0  0.9687131069919539 0.7475376681190276 0  1 0.75 0  1.031286893008046 0.7475376681190276 0  1.06180339887499 0.7402113032590307 0  1.090798099947909 0.7282013048376736 0  1.117557050458495 0.7118033988749896 0  1.141421356237309 0.6914213562373095 0  1.161803398874989 0.6675570504584947 0  1.178201304837674 0.6407980999479094 0  1.190211303259031 0.6118033988749896 0  3.75 0 0  3.75 1 0  1.875 0 0  1.875 1 0  0.9375 0 0  0.9375 1 0  1.40625 1 0  5.625 1 0  5.625 0 0  2.8125 1 0  2.8125 0 0  4.6875 0 0  4.6875 1 0  6.5625 0 0  6.5625 1 0  5.15625 0.5 0  4.21875 0.5 0  2.34375 0.5 0  3.28125 0.5 0  6.09375 0.5 0  7.5 0.5 0  6.897916666666666 0.5 0  1.842708333333333 0.5 0  0 0.5 0  0.46875 0 0  5.625 0.5302734375 0  7.03125 0 0  6.09375 1 0  2.8125 0.4697265625 0  3.28125 0 0  2.34375 1 0  2.34375 0 0  3.75 0.4697265625 0  4.21875 0 0  4.21875 1 0  4.6875 0.5302734375 0  3.28125 1 0  5.15625 0 0  6.09375 0 0  5.15625 1 0  0.46875 1 0  1.40625 0 0  7.03125 1 0  0.3954638734376499 0.5975780249976004 0  6.495833333333334 0.4072265624999998 0  5.859375 0.25 0  4.905729166666666 0.26513671875 0  4.453125 0.25 0  3.531770833333333 0.73486328125 0  3.968229166666667 0.73486328125 0  2.594270833333333 0.73486328125 0  3.030729166666667 0.73486328125 0  6.328125 0.75 0  7.198958333333334 0.3125000000000002 0  7.198958333333334 0.6874999999999998 0  5.390625 0.25 0  0 0.25 0  2.109375 0.75 0  2.109375 0.25 0  1.51921323205749 0.3418883887525936 0  1.522346610178253 0.6811769608297746 0  5.375456746419271 0.75 0  4.921875 0.76513671875 0  4.437956746419271 0.75 0  3.984375 0.23486328125 0  3.500456746419271 0.25 0  2.578125 0.23486328125 0  3.046875 0.23486328125 0  5.874543253580729 0.75 0  6.642123189445656 0.6909095493086836 0  6.746354166666666 0.2391688368055553 0  0.3197109619185111 0.2850049285972083 0  6.328125 0 0  0.6313375889370429 0.2351325552547357 0  0 0.75 0  6.252283381534729 0.2693808819694041 0  0.234375 1 0  6.948437500000001 0.7543055555555555 0  0.5934018769555939 0.7694151657947577 0  1.858854166666667 0.75 0  1.858854166666667 0.25 0  1.640625 0 0  2.093229166666667 0.5 0  7.5 0.25 0  3.282227579752604 0.75 0  7.5 0.75 0  1.171875 0 0  1.303539853147731 0.2235426933121065 0  5.148177083333333 0.2575683593749998 0  2.351822916666667 0.742431640625 0  1.640625 1 0  4.202380413457425 0.7645435094236485 0  3.047822985053062 0.4701848030090332 0  2.577177014946938 0.4701848030090332 0  4.672792740482199 0.76513671875 0  4.922822985053062 0.5298151969909668 0  5.390593497949761 0.5156244924311331 0  5.610292740482199 0.76513671875 0  3.516602579752604 0.5 0  4.45496853898097 0.4865915990446593 0  5.85753146101903 0.4865915990446593 0  3.749511210123698 0.23486328125 0  3.983397420247396 0.4999999999999999 0  2.343497975411212 0.2346270081980111 0  4.219002024588788 0.2346270081980111 0  0.703125 0 0  2.8125 0.2343755075688669 0  3.046875 0 0  2.578125 0 0  3.515625 0 0  3.984375 0 0  4.453125 1 0  5.390625 1 0  2.109375 0 0  2.109375 1 0  5.625 0.2921402030705575 0  5.390625 0 0  7.265625 0 0  6.796875 0 0  6.328125 1 0  3.046875 1 0  2.578125 1 0  3.984375 1 0  3.515625 1 0  4.453125 0 0  4.921875 0 0  5.859375 0 0  0.703125 1 0  1.171875 1 0  7.265625 1 0  4.921875 1 0  5.859375 1 0  0.234375 0 0  6.796875 1 0  6.980310975276531 0.2285890127127066 0  5.149170481934885 0.772689292163473 0  3.274170481934884 0.2273107078365268 0  6.101334126790364 0.7722468376159667 0  4.678005340872584 0.3000799877067239 0  2.8125 0.6921051326382495 0  3.75 0.6921051326382495 0  0.3515624999999999 0.8134571721668546 0  0.4990405774417521 0.4070099317153735 0  0.1789273931360182 0.625 0  6.31239060814315 0.5298877111157968 0  6.456979773992304 0.1917956348713352 0  6.699870808919271 0.4406293402777773 0  1.337539480965883 0.7944303676599538 0  6.058675797563041 0.2019812164653516 0  0.8203125 0.1643029084422534 0  0.1480856513011711 0.375 0  1.090769294689562 0.1719186776982972 0  7.291088163206459 0.5 0  7.094502414936563 0.5197902199074071 0  0.6046212059042245 0.5730066483871106 0  1.707231580809486 0.6342709161352207 0  1.685961352504593 0.8193269193390785 0  1.374721602852827 0.4600373025865813 0  6.486415510043844 0.5916440776477192 0  1.5234375 0.1508863828685116 0  1.707925830421689 0.3657739208189008 0  0.1674513225045584 0.8278776664019765 0  7.138268756771176 0.1438183366439137 0  7.1484375 0.8616388888888887 0  7.328562530764119 0.819498462930605 0  4.101073710123698 0.3678637200736647 0  1.693878467219965 0.1911955120941053 0  1.577566745468488 0.5110082404081502 0  6.6796875 0.8653871806883484 0  6.498039504430512 0.825568433346395 0  0.7562556668576472 0.8333197949571929 0  4.101045914668806 0.6255195807449272 0  5.030745188395182 0.382829047309028 0  2.476364945868651 0.6095868094762166 0  2.729359843907322 0.8460525663191247 0  2.9296875 0.8740763101564099 0  3.163518307559356 0.6254622797994247 0  3.666859843907322 0.8460525663191247 0  3.8671875 0.8740763101564099 0  4.8046875 0.12592368984359 0  3.14936031382311 0.8606990583876851 0  2.4609375 0.8747622921397776 0  5.023140791101972 0.1392266772452574 0  0 0.125 0  0.1759922923594607 0.1727589856739889 0  4.5703125 0.125 0  7.327755777818006 0.1766156770456191 0  5.5078125 0.125 0  5.719712725029036 0.1460701015352787 0  4.327848962028002 0.3674169956512513 0  5.982681121544351 0.3692637923021713 0  3.398926289876302 0.6245417594909667 0  5.281756792511996 0.3827993367299961 0  2.226822645963271 0.6252438868405666 0  2.234390064317166 0.8676616584526566 0  5.2734375 0.125 0  1.96796875 0.382568359375 0  2.234651037971999 0.3674169956512511 0  1.984114583333333 0.132568359375 0  1.9921875 0.875 0  1.984114583333333 0.632568359375 0  5.748733794462357 0.8678269127183313 0  3.3984375 0.875456329184688 0  1.512925924995415 0.8582958012121853 0  1.359299372802969 0.6275861864990343 0  4.810521420483513 0.4041767793635395 0  0.2996213306116602 0.455339710363317 0  5.999933717403708 0.6388425470751088 0  5.250033449003657 0.6388713364551682 0  3.631676045992918 0.3525406652400928 0  4.3359375 0.8816499670325881 0  4.343577437052484 0.6116511299909198 0  3.375033449003656 0.3611286635448316 0  5.763152151652243 0.6249404690537395 0  4.549347848347757 0.6249404690537396 0  5.5004588702411 0.6403667365776566 0  5.976118394847484 0.8816230218343086 0  5.054722486865804 0.6338007028640954 0  3.164542163493752 0.3520519332736524 0  2.445407482032355 0.3672168403687257 0  4.8046875 0.882568359375 0  4.1015625 0.117431640625 0  2.4609375 0.117431640625 0  2.695556894938151 0.3520510350344335 0  2.929443105061849 0.3520510350344335 0  3.881979231817319 0.3670559016511187 0  3.8671875 0.117431640625 0  4.805389247695744 0.6470047893641744 0  3.399370721942191 0.1184066543556767 0  5.274370721942192 0.881593345644323 0  3.618253274934649 0.1316869186284249 0  2.6953125 0.1171877537844335 0  2.9296875 0.1171877537844335 0  2.21873344389451 0.125 0  4.3359375 0.1171877625080073 0  0.6659898565672709 0.3986593551313873 0  7.363359022954956 0.3481046411219251 0  7.363359022954956 0.6518953588780749 0  5.487719392831826 0.3828237631077121 0  2.695054578344725 0.5809158475691247 0  2.944553877887707 0.5964065668438148 0  0.3515625 0.1201898858097106 0  5.5078125 1 0  4.5703125 1 0  5.031746201297604 0.882568359375 0  3.1640625 0 0  6.2109375 1 0  6.186845385763124 0.6336356480571081 0  4.1015625 1 0  6.810399074069772 0.6495574751396682 0  0.4740615253480797 0.2509287743856873 0  7.052064303830151 0.3684417917792242 0  6.195177069665382 0.1216488332168849 0  5.72300154718324 0.4112068202852788 0  3.879157465495092 0.6111892850691246 0  3.645760045247695 0.5809158475691247 0  6.868257400485771 0.3427840810237202 0  6.612030892260864 0.1521752713064389 0  6.615666885941117 0.3151079644097221 0  4.04296875 0.8633718902669071 0  1.183031453639096 0.8486801864185936 0  6.9140625 0 0  6.859079526500421 0.1398292786950638 0  6.808232443325651 0.7957411753922057 0  6.9140625 1 0  4.544955211100143 0.3675874343205077 0  1.0546875 1 0  6.122060236165557 0.3316791557072867 0  0.5859375 0 0  5.9765625 0 0  5.44921875 0.870984788733638 0  4.51171875 0.870984788733638 0  0.7608354256382215 0.2931261274224557 0  6.386875332239937 0.3156583003094978 0  6.985654756850997 0.6147408423643147 0  6.223797257919172 0.8535621912121121 0  5.936822413218736 0.1338376546337823 0  6.23933008800134 0.4095573603773768 0  0.5414022462152697 0.1305482677949959 0  6.331360438104348 0.1370086318183389 0  0.956404929269873 0.1374266563647954 0  1.2890625 1 0  0.691305981127761 0.6764829884281737 0  3.531251607241209 0.8678916320952239 0  2.59787442813022 
[...]
<PointData  Vectors="f_71627"> 
<DataArray  type="Float64"  Name="f_71627"  NumberOfComponents="3" format="ascii">0.0000000000000000e+00 0.0000000000000000e+00 0.0000000000000000e+00  0.0000000000000000e+00 0.0000000000000000e+00 0.0000000000000000e+00  0.0000000000000000e+00 0.0000000000000000e+00 0.0000000000000000e+00  0.0000000000000000e+00 0.0000000000000000e+00 0.0000000000000000e+00  0.0000000000000000e+00 0.0000000000000000e+00 0.0000000000000000e+00  0.0000000000000000e+00 0.0000000000000000e+00 0.0000000000000000e+00  0.0000000000000000e+00 0.0000000000000000e+00 0.0000000000000000e+00  0.0000000000000000e+00 0.0000000000000000e+00 0.0000000000000000e+00  0.0000000000000000e+00 0.0000000000000000e+00 0.0000000000000000e+00  0.0000000000000000e+00 0.0000000000000000e+00 0.0000000000000000e+00  0.0000000000000000e+00 0.0000000000000000e+00 0.0000000000000000e+00  0.0000000000000000e+00 0.0000000000000000e+00 0.0000000000000000e+00  0.0000000000000000e+00 0.0000000000000000e+00 0.0000000000000000e+00  0.0000000000000000e+00 0.0000000000000000e+00 0.0000000000000000e+00  0.0000000000000000e+00 0.0000000000000000e+00 0.0000000000000000e+00  0.0000000000000000e+00 0.0000000000000000e+00 0.0000000000000000e+00  0.0000000000000000e+00 0.0000000000000000e+00 0.0000000000000000e+00  0.0000000000000000e+00 0.0000000000000000e+00 0.0000000000000000e+00  0.0000000000000000e+00 0.0000000000000000e+00 0.0000000000000000e+00  0.0000000000000000e+00 0.0000000000000000e+00 0.0000000000000000e+00  0.0000000000000000e+00 0.0000000000000000e+00 0.0000000000000000e+00  0.0000000000000000e+00 0.0000000000000000e+00 0.0000000000000000e+00  0.0000000000000000e+00 0.0000000000000000e+00 0.0000000000000000e+00  0.0000000000000000e+00 0.0000000000000000e+00 0.0000000000000000e+00  0.0000000000000000e+00 0.0000000000000000e+00 0.0000000000000000e+00  0.0000000000000000e+00 0.0000000000000000e+00 0.0000000000000000e+00  0.0000000000000000e+00 0.0000000000000000e+00 0.0000000000000000e+00  0.0000000000000000e+00 0.0000000000000000e+00 0.0000000000000000e+00  0.0000000000000000e+00 0.0000000000000000e+00 0.0000000000000000e+00  0.0000000000000000e+00 0.0000000000000000e+00 0.0000000000000000e+00  0.0000000000000000e+00 0.0000000000000000e+00 0.0000000000000000e+00  0.0000000000000000e+00 0.0000000000000000e+00 0.0000000000000000e+00  0.0000000000000000e+00 0.0000000000000000e+00 0.0000000000000000e+00  0.0000000000000000e+00 0.0000000000000000e+00 0.0000000000000000e+00  0.0000000000000000e+00 0.0000000000000000e+00 0.0000000000000000e+00  0.0000000000000000e+00 0.0000000000000000e+00 0.0000000000000000e+00  0.0000000000000000e+00 0.0000000000000000e+00 0.0000000000000000e+00  0.0000000000000000e+00 0.0000000000000000e+00 0.0000000000000000e+00  0.0000000000000000e+00 0.0000000000000000e+00 0.0000000000000000e+00  0.0000000000000000e+00 0.0000000000000000e+00 0.0000000000000000e+00  0.0000000000000000e+00 0.0000000000000000e+00 0.0000000000000000e+00  0.0000000000000000e+00 0.0000000000000000e+00 0.0000000000000000e+00  0.0000000000000000e+00 0.0000000000000000e+00 0.0000000000000000e+00  0.0000000000000000e+00 0.0000000000000000e+00 0.0000000000000000e+00  0.0000000000000000e+00 0.0000000000000000e+00 0.0000000000000000e+00  0.0000000000000000e+00 0.0000000000000000e+00 0.0000000000000000e+00  0.0000000000000000e+00 0.0000000000000000e+00 0.0000000000000000e+00  0.0000000000000000e+00 0.0000000000000000e+00 0.0000000000000000e+00  0.0000000000000000e+00 0.0000000000000000e+00 0.0000000000000000e+00  0.0000000000000000e+00 0.0000000000000000e+00 0.0000000000000000e+00  0.0000000000000000e+00 0.0000000000000000e+00 0.0000000000000000e+00  0.0000000000000000e+00 0.0000000000000000e+00 0.0000000000000000e+00  0.0000000000000000e+00 0.0000000000000000e+00 0.0000000000000000e+00  0.0000000000000000e+00 0.0000000000000000e+00 0.0000000000000000e+00  0.0000000000000000e+00 0.0000000000000000e+00 0.0000000000000000e+00  0.0000000000000000e+00 0.0000000000000000e+00 0.0000000000000000e+00  0.0000000000000000e+00 0.0000000000000000e+00 0.0000000000000000e+00  0.0000000000000000e+00 0.0000000000000000e+00 0.0000000000000000e+00  0.0000000000000000e+00 0.0000000000000000e+00 0.0000000000000000e+00  1.0227862115852242e+00 -7.3851554310416654e-05 0.0000000000000000e+00  1.0278432412178140e+00 -5.5082811005330561e-04 0.0000000000000000e+00  1.0211613287166792e+00 2.9013910600168211e-03 0.0000000000000000e+00  1.0241484501031983e+00 7.3294904147017462e-05 0.0000000000000000e+00  1.0263423925230166e+00 -6.0429193035831826e-08 0.0000000000000000e+00  1.5000002153360379e+00 0.0000000000000000e+00 0.0000000000000000e+00  1.0319007214457667e+00 4.8710114668711188e-04 0.0000000000000000e+00  1.0129769304519334e+00 1.2415608424170861e-02 0.0000000000000000e+00  1.5000002153360379e+00 0.0000000000000000e+00 0.0000000000000000e+00  0.0000000000000000e+00 0.0000000000000000e+00 0.0000000000000000e+00  1.0269851213136107e+00 5.7176435491064861e-04 0.0000000000000000e+00  0.0000000000000000e+00 0.0000000000000000e+00 0.0000000000000000e+00  0.0000000000000000e+00 0.0000000000000000e+00 0.0000000000000000e+00  1.0233058027803104e+00 8.2972132888351868e-04 0.0000000000000000e+00  0.0000000000000000e+00 0.0000000000000000e+00 0.0000000000000000e+00  0.0000000000000000e+00 0.0000000000000000e+00 0.0000000000000000e+00  0.0000000000000000e+00 0.0000000000000000e+00 0.0000000000000000e+00  1.0272257282872559e+00 -1.3062549190882712e-03 0.0000000000000000e+00  0.0000000000000000e+00 0.0000000000000000e+00 0.0000000000000000e+00  0.0000000000000000e+00 0.0000000000000000e+00 0.0000000000000000e+00  1.0289266357476601e+00 -3.2029319156065723e-04 0.0000000000000000e+00  0.0000000000000000e+00 0.0000000000000000e+00 0.0000000000000000e+00  0.0000000000000000e+00 0.0000000000000000e+00 0.0000000000000000e+00  0.0000000000000000e+00 0.0000000000000000e+00 0.0000000000000000e+00  0.0000000000000000e+00 0.0000000000000000e+00 0.0000000000000000e+00  0.0000000000000000e+00 0.0000000000000000e+00 0.0000000000000000e+00  0.0000000000000000e+00 0.0000000000000000e+00 0.0000000000000000e+00  0.0000000000000000e+00 0.0000000000000000e+00 0.0000000000000000e+00  1.0206314317559217e+00 3.4231464763856711e-03 0.0000000000000000e+00  1.0251981184359926e+00 1.1022232347362019e-03 0.0000000000000000e+00  9.5783651094544531e-01 -2.7794873581020590e-03 0.0000000000000000e+00  9.9566536156036245e-01 -1.3780961687802713e-03 0.0000000000000000e+00  9.7743542246915283e-01 -2.1158877271006170e-03 0.0000000000000000e+00  9.6798433739208989e-01 -5.8264367999201075e-03 0.0000000000000000e+00  9.3668654027944764e-01 -6.1145296683796715e-03 0.0000000000000000e+00  1.0215494359009005e+00 2.5892263185581520e-04 0.0000000000000000e+00  1.0234440598928651e+00 3.7149056670805725e-04 0.0000000000000000e+00  9.9127656462499270e-01 2.3872959990866673e-03 0.0000000000000000e+00  1.0332268917181520e+00 -3.5589716991757852e-03 0.0000000000000000e+00  1.0308141643383457e+00 4.7014784612631408e-03 0.0000000000000000e+00  1.0157166871096939e+00 -1.3156159804858561e-03 0.0000000000000000e+00  1.1250001615020284e+00 0.0000000000000000e+00 0.0000000000000000e+00  1.0179006660625349e+00 2.6564065111611842e-03 0.0000000000000000e+00  1.0244001447800259e+00 4.8638849117740458e-03 0.0000000000000000e+00  1.0112292877562832e+00 9.6504020742461075e-02 0.0000000000000000e+00  9.6848527166456388e-01 -4.6041843815874686e-02 0.0000000000000000e+00  9.9735243144556462e-01 -2.4921044968730186e-03 0.0000000000000000e+00  9.9856101961817834e-01 -1.6513941848654125e-03 0.0000000000000000e+00  1.0117909556276339e+00 4.4544347441006190e-03 0.0000000000000000e+00  1.0233815363264953e+00 2.8025976536528524e-04 0.0000000000000000e+00  9.6802237105105882e-01 -3.3411887506653846e-03 0.0000000000000000e+00  1.0231655891933211e+00 1.6119109936425071e-03 0.0000000000000000e+00  1.0213651348963577e+00 7.7885301476565043e-04 0.0000000000000000e+00  1.0147390400916263e+00 5.4179322207457384e-04 0.0000000000000000e+00  9.9285610177209327e-01 -2.3386464560157041e-03 0.0000000000000000e+00  9.6120160827948675e-01 3.4737329837825157e-03 0.0000000000000000e+00  1.0587888715229299e+00 -1.3349571213977252e-01 0.0000000000000000e+00  0.0000000000000000e+00 0.0000000000000000e+00 0.0000000000000000e+00  1.1205295372020048e+00 -1.8832446570323633e-01 0.0000000000000000e+00  1.1250001615020284e+00 0.0000000000000000e+00 0.0000000000000000e+00  1.0122485707797104e+00 4.4631659511862555e-03 0.0000000000000000e+00  0.0000000000000000e+00 0.0000000000000000e+00 0.0000000000000000e+00  9.9066724488707869e-01 8.1344992830916592e-04 0.0000000000000000e+00  1.0128134593996632e+00 1.5196076144469703e-01 0.0000000000000000e+00  1.0140429375244826e+00 -5.2054884015651405e-05 0.0000000000000000e+00  1.0300367862451503e+00 1.5137210932933513e-02 0.0000000000000000e+00  0.0000000000000000e+00 0.0000000000000000e+00 0.0000000000000000e+00  1.0198020788111553e+00 5.5884095519153172e-03 0.0000000000000000e+00  1.1250001615020284e+00 0.0000000000000000e+00 0.0000000000000000e+00  9.9252214517934223e-01 -1.7825464009712441e-03 0.0000000000000000e+00  1.1250001615020284e+00 0.0000000000000000e+00 0.0000000000000000e+00  0.0000000000000000e+00 0.0000000000000000e+00 0.0000000000000000e+00  1.1996821365869283e+00 2.1391574120750023e-01 0.0000000000000000e+00  9.6004336036478477e-01 -9.9298259365865452e-05 0.0000000000000000e+00  1.0195928730047092e+00 1.4451549105030334e-03 0.0000000000000000e+00  0.0000000000000000e+00 0.0000000000000000e+00 0.0000000000000000e+00  9.0393173563364859e-01 -6.2550967767911417e-03 0.0000000000000000e+00  1.0236855998999532e+00 5.8675799796500841e-04 0.0000000000000000e+00  1.0225248910345401e+00 1.7693226219639888e-03 0.0000000000000000e+00  9.6011309674421741e-01 4.5614907588400451e-03 0.0000000000000000e+00  1.0253522026536466e+00 -2.6089395123817140e-04 0.0000000000000000e+00  1.0281185336910386e+00 5.1711538693675863e-04 0.0000000000000000e+00  9.5237991640481856e-01 4.4722734446971191e-03 0.0000000000000000e+00  1.0255651556431595e+00 -1.3745713454039789e-03 0.0000000000000000e+00  1.0286269332382785e+00 1.7948576367454432e-04 0.0000000000000000e+00  1.0263837456213951e+00 4.0614479349612275e-04 0.0000000000000000e+00  9.8596431194274070e-01 -4.6487155213670809e-03 0.0000000000000000e+00  1.0253720265625519e+00 -1.1641403930230036e-03 0.0000000000000000e+00  1.0218152817186288e+00 3.5893447536740836e-03 0.0000000000000000e+00  9.7650545105311159e-01 6.4631856927893335e-03 0.0000000000000000e+00  0.0000000000000000e+00 0.0000000000000000e+00 0.0000000000000000e+00  1.0220576907587307e+00 1.0567011170933859e-04 0.0000000000000000e+00  0.0000000000000000e+00 0.0000000000000000e+00 0.0000000000000000e+00  0.0000000000000000e+00 0.0000000000000000e+00 0.0000000000000000e+00  0.0000000000000000e+00 0.0000000000000000e+00 0.0000000000000000e+00  0.0000000000000000e+00 0.0000000000000000e+00 0.0000000000000000e+00  0.0000000000000000e+00 0.0000000000000000e+00 0.0000000000000000e+00  0.0000000000000000e+00 0.0000000000000000e+00 0.0000000000000000e+00  0.0000000000000000e+00 0.0000000000000000e+00 0.0000000000000000e+00  0.0000000000000000e+00 0.0000000000000000e+00 0.0000000000000000e+00  1.0148900957906066e+00 2.6519435781641558e-03 0.0000000000000000e+00  0.0000000000000000e+00 0.0000000000000000e+00 0.0000000000000000e+00  0.0000000000000000e+00 0.0000000000000000e+00 0.0000000000000000e+00  0.0000000000000000e+00 0.0000000000000000e+00 0.0000000000000000e+00  0.0000000000000000e+00 0.0000000000000000e+00 0.0000000000000000e+00  0.0000000000000000e+00 0.0000000000000000e+00 0.0000000000000000e+00  0.0000000000000000e+00 0.0000000000000000e+00 0.0000000000000000e+00  0.0000000000000000e+00 0.0000000000000000e+00 0.0000000000000000e+00  0.0000000000000000e+00 0.0000000000000000e+00 0.0000000000000000e+00  0.0000000000000000e+00 0.0000000000000000e+00 0.0000000000000000e+00  0.0000000000000000e+00 0.0000000000000000e+00 0.0000000000000000e+00  0.0000000000000000e+00 0.0000000000000000e+00 0.0000000000000000e+00  0.0000000000000000e+00 0.0000000000000000e+00 0.0000000000000000e+00  0.0000000000000000e+00 0.0000000000000000e+00 0.0000000000000000e+00  0.0000000000000000e+00 0.0000000000000000e+00 0.0000000000000000e+00  0.0000000000000000e+00 0.0000000000000000e+00 0.0000000000000000e+00  0.0000000000000000e+00 0.0000000000000000e+00 0.0000000000000000e+00  0.0000000000000000e+00 0.0000000000000000e+00 0.0000000000000000e+00  0.0000000000000000e+00 0.0000000000000000e+00 0.0000000000000000e+00  9.5368844755835314e-01 -7.4068391623758993e-03 0.0000000000000000e+00  9.2872016847834293e-01 8.1544401776891175e-03 0.0000000000000000e+00  9.6565378043943717e-01 1.4547576391802245e-02 0.0000000000000000e+00  9.8486353793113379e-01 -6.8076242464431133e-03 0.0000000000000000e+00  1.0160107551805548e+00 -9.3508362767058702e-04 0.0000000000000000e+00  1.0229775176374873e+00 5.5272820301332634e-05 0.0000000000000000e+00  9.9027293859292509e-01 -5.4140298789077460e-03 0.0000000000000000e+00  9.9345258409703741e-01 9.6061237893778961e-02 0.0000000000000000e+00  9.9894624919761199e-01 -1.1135871519278150e-01 0.0000000000000000e+00  1.1532244842885628e+00 1.7953342689082175e-01 0.0000000000000000e+00  1.0266417005297686e+00 5.5543334765392847e-04 0.0000000000000000e+00  9.9088945645911619e-01 1.0081091849363059e-03 0.0000000000000000e+00  1.0305188991412730e+00 2.1302626405404277e-04 0.0000000000000000e+00  1.0675070342348889e+00 -2.1137541643306798e-01 0.0000000000000000e+00  9.8842364821116246e-01 5.4801817702513234e-04 0.0000000000000000e+00  1.3541005944082429e+00 -1.8714126993592842e-01 0.0000000000000000e+00  1.3052048620940813e+00 -1.9514677590293456e-01 0.0000000000000000e+00  1.5165549952914386e+00 1.2612493994785723e-01 0.0000000000000000e+00  1.3526903320561394e+00 -1.5164776324867058e-03 0.0000000000000000e+00  1.0880183631391525e+00 4.6793196902379361e-05 0.0000000000000000e+00  8.5127991600120578e-01 2.1217546180928391e-02 0.0000000000000000e+00  9.9964638242276460e-01 3.1912783364768273e-04 0.0000000000000000e+00  1.0186790643728070e+00 -1.3890551514117463e-02 0.0000000000000000e+00  8.3920066650615976e-01 1.6161835080455819e-01 0.0000000000000000e+00  1.0188898667567041e+00 1.1388742308862651e-04 0.0000000000000000e+00  1.0431037731356725e+00 6.3693338737252039e-02 0.0000000000000000e+00  1.0179870121373036e+00 3.4068275881602987e-02 0.0000000000000000e+00  7.8757334495230658e-01 2.6255409213397662e-01 0.0000000000000000e+00  9.4077964540382875e-01 1.1958315386952318e-02 0.0000000000000000e+00  8.9654248045085527e-01 -4.6506714500260282e-02 0.0000000000000000e+00  8.2127037387679469e-01 7.1611427384541291e-03 0.0000000000000000e+00  1.0110836506265317e+00 -1.3807750066435810e-03 0.0000000000000000e+00  1.0481066547962905e+00 3.1018583967976771e-02 0.0000000000000000e+00  9.6859348246532828e-01 3.1830464363466551e-02 0.0000000000000000e+00  9.2310113108952452e-01 1.5347217944377408e-03 0.0000000000000000e+00  9.7746884979103865e-01 -4.3729576878192913e-03 0.0000000000000000e+00  1.1790853455524359e+00 2.7312128389735163e-01 0.0000000000000000e+00  1.0204681611162849e+00 3.6369760409088480e-04 0.0000000000000000e+00  1.0159902506291132e+00 -5.6432334320242604e-04 0.0000000000000000e+00  1.0212859838899699e+00 1.5408493409965437e-03 0.0000000000000000e+00  9.1910731586056249e-01 -4.6810562105780128e-03 0.0000000000000000e+00  1.0070924636294973e+00 7.5514416955506998e-04 0.0000000000000000e+00  1.0238262193156475e+00 -3.2774802922217806e-04 0.0000000000000000e+00  8.9030730075276265e-01 1.7605021021655266e-02 0.0000000000000000e+00  9.5895327298015742e-01 -7.0964551302785360e-03 0.0000000000000000e+00  8.7968828134585797e-01 1.3813153244738601e-02 0.0000000000000000e+00  9.8263057332211401e-01 1.0262625083615005e-02 0.0000000000000000e+00  9.7990180445049690e-01 -2.6785025952289045e-03 0.0000000000000000e+00  8.6705859118337258e-01 5.3789691837100410e-03 0.0000000000000000e+00  6.5625009420951652e-01 0.0000000000000000e+00 0.0000000000000000e+00  8.1718596526276144e-01 -2.0992013597958983e-01 0.0000000000000000e+00  8.6670830959589451e-01 -1.4843513234867965e-03 0.0000000000000000e+00  6.6590988544413254e-01 -1.7307555835866639e-02 0.0000000000000000e+00  9.2637909050344669e-01 9.1821877540315677e-03 0.0000000000000000e+00  9.3636360009467523e-01 7.8498315414013021e-03 0.0000000000000000e+00  1.0206050753179960e+00 -1.0489105656992131e-03 0.0000000000000000e+00  1.0202899983729934e+00 -7.8572983215387281e-04 0.0000000000000000e+00  1.0214394146304568e+00 -2.6425481000724588e-03 0.0000000000000000e+00  1.0218466010744105e+00 6.1240559567394257e-04 0.0000000000000000e+00  1.0195489788033836e+00 3.0725051305064660e-03 0.0000000000000000e+00  9.7528412705719780e-01 -1.0175967706685133e-03 0.0000000000000000e+00  8.5036537105422527e-01 -3.7069135696298600e-04 0.0000000000000000e+00  1.0217521843417834e+00 9.9657443915942192e-03 0.0000000000000000e+00  1.0219513009280161e+00 4.0992684099850933e-03 0.0000000000000000e+00  1.0414774190066127e+00 -2.1852368129258237e-02 0.0000000000000000e+00  9.6726726963444853e-01 1.3724131229998166e-04 0.0000000000000000e+00  1.0160667852289531e+00 4.6541323775130886e-03 0.0000000000000000e+00  7.6645557351462512e-01 1.0287379435121372e-02 0.0000000000000000e+00  9.9338087201281955e-01 -2.3905159338243444e-03 0.0000000000000000e+00  1.0292088250433775e+00 -5.3284262827789163e-02 0.0000000000000000e+00  8.0155526188087411e-01 -1.3006848544067834e-01 0.0000000000000000e+00  1.0234815824422756e+00 -7.3996683320057938e-04 0.0000000000000000e+00  1.1373605537378384e+00 -9.0910284754178339e-02 0.0000000000000000e+00  1.0213149918662048e+00 2.5192593953723139e-04 0.0000000000000000e+00  1.0090851722330665e+00 -1.4582599014887222e-03 0.0000000000000000e+00  1.0274297711755029e+00 -5.4433130482315197e-04 0.0000000000000000e+00  7.9154661545074823e-01 -1.5924219192713709e-02 0.0000000000000000e+00  1.0270864207261525e+00 -7.4951428183517052e-05 0.0000000000000000e+00  1.0175626243941578e+00 -7.7077429869135258e-04 0.0000000000000000e+00  1.0270887919130991e+00 -6.1213507583602158e-04 0.0000000000000000e+00  1.0193447663068333e+00 1.0913490751934731e-03 0.0000000000000000e+00  1.0226853228264901e+00 1.6555404070076355e-03 0.0000000000000000e+00  8.5957011210565837e-01 -3.3001304230322083e-02 0.0000000000000000e+00  1.0152848423565064e+00 -4.7022888224900882e-04 0.0000000000000000e+00  1.0225791269619342e+00 1.9280468516409900e-03 0.0000000000000000e+00  1.0225181022413390e+00 2.9272706020570041e-03 0.0000000000000000e+00  7.4906252651031235e-01 -2.9691481641536357e-02 0.0000000000000000e+00  8.2856694534173969e-01 1.8380490418663971e-02 0.0000000000000000e+00  7.7080870645597777e-01 2.8027041241129934e-03 0.0000000000000000e+00  1.0234743078312230e+00 1.5869448716851239e-03 0.0000000000000000e+00  1.0234817930575142e+00 6.8658660524061196e-04 0.0000000000000000e+00  1.0257740073450350e+00 1.0115333246599660e-03 0.0000000000000000e+00  7.2446161900067385e-01 -9.5921541412658038e-04 0.0000000000000000e+00  1.0187378695634453e+00 -3.7728538851767879e-04 0.0000000000000000e+00  8.7016431924236026e-01 3.3605726637459830e-02 0.0000000000000000e+00  7.4448718514648271e-01 -1.4240927820640027e-02 0.0000000000000000e+00  9.5460232252930866e-01 1.6191480050441329e-02 0.0000000000000000e+00  7.4905849494512555e-01 -4.8548823296362432e-03 0.0000000000000000e+00  8.0526025435529724e-01 -3.5343703512549954e-03 0.0000000000000000e+00  9.7380094309542509e-01 5.6099595993809646e-04 0.0000000000000000e+00  7.5915054135720939e-01 1.1424616475314155e-02 0.0000000000000000e+00  9.2424849089661421e-01 -2.8089771649827344e-01 0.0000000000000000e+00  9.6121842896791487e-01 -2.7063527209445814e-03 0.0000000000000000e+00  9.9942875058516834e-01 -1.1910226447527240e-03 0.0000000000000000e+00  1.0214266417457980e+00 7.1428267788177231e-04 0.0000000000000000e+00  