<?xml version="1.0"?>
<VTKFile type="UnstructuredGrid"  version="0.1"  >
<UnstructuredGrid>
<Piece  NumberOfPoints="4269" NumberOfCells="8234">
<Points>
<DataArray  type="Float64"  NumberOfComponents="3"  format="ascii">0 1 0  0 0 0  7.5 0 0  7.5 1 0  1.197537668119028 0.5812868930080463 0  1.2 0.55 0  1.197537668119028 0.5187131069919538 0  1.190211303259031 0.4881966011250105 0  1.178201304837674 0.4592019000520907 0  1.161803398874989 0.4324429495415054 0  1.141421356237309 0.4085786437626905 0  1.117557050458495 0.3881966011250105 0  1.090798099947909 0.3717986951623264 0  1.06180339887499 0.3597886967409693 0  1.031286893008046 0.3524623318809725 0  1 0.35 0  0.9687131069919538 0.3524623318809725 0  0.9381966011250105 0.3597886967409694 0  0.9092019000520906 0.3717986951623264 0  0.8824429495415054 0.3881966011250105 0  0.8585786437626904 0.4085786437626905 0  0.8381966011250105 0.4324429495415054 0  0.8217986951623264 0.4592019000520907 0  0.8097886967409692 0.4881966011250107 0  0.8024623318809725 0.5187131069919539 0  0.8 0.55 0  0.8024623318809725 0.5812868930080463 0  0.8097886967409693 0.6118033988749896 0  0.8217986951623264 0.6407980999479095 0  0.8381966011250105 0.6675570504584947 0  0.8585786437626906 0.6914213562373096 0  0.8824429495415054 0.7118033988749896 0  0.9092019000520907 0.7282013048376736 0  0.9381966011250106 0.7402113032590307 0  0.9687131069919539 0.7475376681190276 0  1 0.75 0  1.031286893008046 0.7475376681190276 0  1.06180339887499 0.7402113032590307 0  1.090798099947909 0.7282013048376736 0  1.117557050458495 0.7118033988749896 0  1.141421356237309 0.6914213562373095 0  1.161803398874989 0.6675570504584947 0  1.178201304837674 0.6407980999479094 0  1.190211303259031 0.6118033988749896 0  3.75 0 0  3.75 1 0  1.875 0 0  1.875 1 0  0.9375 0 0  0.9375 1 0  1.40625 1 0  5.625 1 0  5.625 0 0  2.8125 1 0  2.8125 0 0  4.6875 0 0  4.6875 1 0  6.5625 0 0  6.5625 1 0  5.15625 0.5 0  4.21875 0.5 0  2.34375 0.5 0  3.28125 0.5 0  6.09375 0.5 0  7.5 0.5 0  6.897916666666666 0.5 0  1.842708333333333 0.5 0  0 0.5 0  0.46875 0 0  5.625 0.5302734375 0  7.03125 0 0  6.09375 1 0  2.8125 0.4697265625 0  3.28125 0 0  2.34375 1 0  2.34375 0 0  3.75 0.4697265625 0  4.21875 0 0  4.21875 1 0  4.6875 0.5302734375 0  3.28125 1 0  5.15625 0 0  6.09375 0 0  5.15625 1 0  0.46875 1 0  1.40625 0 0  7.03125 1 0  0.3954638734376499 0.5975780249976004 0  6.495833333333334 0.4072265624999998 0  5.859375 0.25 0  4.905729166666666 0.26513671875 0  4.453125 0.25 0  3.531770833333333 0.73486328125 0  3.968229166666667 0.73486328125 0  2.594270833333333 0.73486328125 0  3.030729166666667 0.73486328125 0  6.328125 0.75 0  7.198958333333334 0.3125000000000002 0  7.198958333333334 0.6874999999999998 0  5.390625 0.25 0  0 0.25 0  2.109375 0.75 0  2.109375 0.25 0  1.51921323205749 0.3418883887525936 0  1.522346610178253 0.6811769608297746 0  5.375456746419271 0.75 0  4.921875 0.76513671875 0  4.437956746419271 0.75 0  3.984375 0.23486328125 0  3.500456746419271 0.25 0  2.578125 0.23486328125 0  3.046875 0.23486328125 0  5.874543253580729 0.75 0  6.642123189445656 0.6909095493086836 0  6.746354166666666 0.2391688368055553 0  0.3197109619185111 0.2850049285972083 0  6.328125 0 0  0.6313375889370429 0.2351325552547357 0  0 0.75 0  6.252283381534729 0.2693808819694041 0  0.234375 1 0  6.948437500000001 0.7543055555555555 0  0.5934018769555939 0.7694151657947577 0  1.858854166666667 0.75 0  1.858854166666667 0.25 0  1.640625 0 0  2.093229166666667 0.5 0  7.5 0.25 0  3.282227579752604 0.75 0  7.5 0.75 0  1.171875 0 0  1.303539853147731 0.2235426933121065 0  5.148177083333333 0.2575683593749998 0  2.351822916666667 0.742431640625 0  1.640625 1 0  4.202380413457425 0.7645435094236485 0  3.047822985053062 0.4701848030090332 0  2.577177014946938 0.4701848030090332 0  4.672792740482199 0.76513671875 0  4.922822985053062 0.5298151969909668 0  5.390593497949761 0.5156244924311331 0  5.610292740482199 0.76513671875 0  3.516602579752604 0.5 0  4.45496853898097 0.4865915990446593 0  5.85753146101903 0.4865915990446593 0  3.749511210123698 0.23486328125 0  3.983397420247396 0.4999999999999999 0  2.343497975411212 0.2346270081980111 0  4.219002024588788 0.2346270081980111 0  0.703125 0 0  2.8125 0.2343755075688669 0  3.046875 0 0  2.578125 0 0  3.515625 0 0  3.984375 0 0  4.453125 1 0  5.390625 1 0  2.109375 0 0  2.109375 1 0  5.625 0.2921402030705575 0  5.390625 0 0  7.265625 0 0  6.796875 0 0  6.328125 1 0  3.046875 1 0  2.578125 1 0  3.984375 1 0  3.515625 1 0  4.453125 0 0  4.921875 0 0  5.859375 0 0  0.703125 1 0  1.171875 1 0  7.265625 1 0  4.921875 1 0  5.859375 1 0  0.234375 0 0  6.796875 1 0  6.980310975276531 0.2285890127127066 0  5.149170481934885 0.772689292163473 0  3.274170481934884 0.2273107078365268 0  6.101334126790364 0.7722468376159667 0  4.678005340872584 0.3000799877067239 0  2.8125 0.6921051326382495 0  3.75 0.6921051326382495 0  0.3515624999999999 0.8134571721668546 0  0.4990405774417521 0.4070099317153735 0  0.1789273931360182 0.625 0  6.31239060814315 0.5298877111157968 0  6.456979773992304 0.1917956348713352 0  6.699870808919271 0.4406293402777773 0  1.337539480965883 0.7944303676599538 0  6.058675797563041 0.2019812164653516 0  0.8203125 0.1643029084422534 0  0.1480856513011711 0.375 0  1.090769294689562 0.1719186776982972 0  7.291088163206459 0.5 0  7.094502414936563 0.5197902199074071 0  0.6046212059042245 0.5730066483871106 0  1.707231580809486 0.6342709161352207 0  1.685961352504593 0.8193269193390785 0  1.374721602852827 0.4600373025865813 0  6.486415510043844 0.5916440776477192 0  1.5234375 0.1508863828685116 0  1.707925830421689 0.3657739208189008 0  0.1674513225045584 0.8278776664019765 0  7.138268756771176 0.1438183366439137 0  7.1484375 0.8616388888888887 0  7.328562530764119 0.819498462930605 0  4.101073710123698 0.3678637200736647 0  1.693878467219965 0.1911955120941053 0  1.577566745468488 0.5110082404081502 0  6.6796875 0.8653871806883484 0  6.498039504430512 0.825568433346395 0  0.7562556668576472 0.8333197949571929 0  4.101045914668806 0.6255195807449272 0  5.030745188395182 0.382829047309028 0  2.476364945868651 0.6095868094762166 0  2.729359843907322 0.8460525663191247 0  2.9296875 0.8740763101564099 0  3.163518307559356 0.6254622797994247 0  3.666859843907322 0.8460525663191247 0  3.8671875 0.8740763101564099 0  4.8046875 0.12592368984359 0  3.14936031382311 0.8606990583876851 0  2.4609375 0.8747622921397776 0  5.023140791101972 0.1392266772452574 0  0 0.125 0  0.1759922923594607 0.1727589856739889 0  4.5703125 0.125 0  7.327755777818006 0.1766156770456191 0  5.5078125 0.125 0  5.719712725029036 0.1460701015352787 0  4.327848962028002 0.3674169956512513 0  5.982681121544351 0.3692637923021713 0  3.398926289876302 0.6245417594909667 0  5.281756792511996 0.3827993367299961 0  2.226822645963271 0.6252438868405666 0  2.234390064317166 0.8676616584526566 0  5.2734375 0.125 0  1.96796875 0.382568359375 0  2.234651037971999 0.3674169956512511 0  1.984114583333333 0.132568359375 0  1.9921875 0.875 0  1.984114583333333 0.632568359375 0  5.748733794462357 0.8678269127183313 0  3.3984375 0.875456329184688 0  1.512925924995415 0.8582958012121853 0  1.359299372802969 0.6275861864990343 0  4.810521420483513 0.4041767793635395 0  0.2996213306116602 0.455339710363317 0  5.999933717403708 0.6388425470751088 0  5.250033449003657 0.6388713364551682 0  3.631676045992918 0.3525406652400928 0  4.3359375 0.8816499670325881 0  4.343577437052484 0.6116511299909198 0  3.375033449003656 0.3611286635448316 0  5.763152151652243 0.6249404690537395 0  4.549347848347757 0.6249404690537396 0  5.5004588702411 0.6403667365776566 0  5.976118394847484 0.8816230218343086 0  5.054722486865804 0.6338007028640954 0  3.164542163493752 0.3520519332736524 0  2.445407482032355 0.3672168403687257 0  4.8046875 0.882568359375 0  4.1015625 0.117431640625 0  2.4609375 0.117431640625 0  2.695556894938151 0.3520510350344335 0  2.929443105061849 0.3520510350344335 0  3.881979231817319 0.3670559016511187 0  3.8671875 0.117431640625 0  4.805389247695744 0.6470047893641744 0  3.399370721942191 0.1184066543556767 0  5.274370721942192 0.881593345644323 0  3.618253274934649 0.1316869186284249 0  2.6953125 0.1171877537844335 0  2.9296875 0.1171877537844335 0  2.21873344389451 0.125 0  4.3359375 0.1171877625080073 0  0.6659898565672709 0.3986593551313873 0  7.363359022954956 0.3481046411219251 0  7.363359022954956 0.6518953588780749 0  5.487719392831826 0.3828237631077121 0  2.695054578344725 0.5809158475691247 0  2.944553877887707 0.5964065668438148 0  0.3515625 0.1201898858097106 0  5.5078125 1 0  4.5703125 1 0  5.031746201297604 0.882568359375 0  3.1640625 0 0  6.2109375 1 0  6.186845385763124 0.6336356480571081 0  4.1015625 1 0  6.810399074069772 0.6495574751396682 0  0.4740615253480797 0.2509287743856873 0  7.052064303830151 0.3684417917792242 0  6.195177069665382 0.1216488332168849 0  5.72300154718324 0.4112068202852788 0  3.879157465495092 0.6111892850691246 0  3.645760045247695 0.5809158475691247 0  6.868257400485771 0.3427840810237202 0  6.612030892260864 0.1521752713064389 0  6.615666885941117 0.3151079644097221 0  4.04296875 0.8633718902669071 0  1.183031453639096 0.8486801864185936 0  6.9140625 0 0  6.859079526500421 0.1398292786950638 0  6.808232443325651 0.7957411753922057 0  6.9140625 1 0  4.544955211100143 0.3675874343205077 0  1.0546875 1 0  6.122060236165557 0.3316791557072867 0  0.5859375 0 0  5.9765625 0 0  5.44921875 0.870984788733638 0  4.51171875 0.870984788733638 0  0.7608354256382215 0.2931261274224557 0  6.386875332239937 0.3156583003094978 0  6.985654756850997 0.6147408423643147 0  6.223797257919172 0.8535621912121121 0  5.936822413218736 0.1338376546337823 0  6.23933008800134 0.4095573603773768 0  0.5414022462152697 0.1305482677949959 0  6.331360438104348 0.1370086318183389 0  0.956404929269873 0.1374266563647954 0  1.2890625 1 0  0.691305981127761 0.6764829884281737 0  3.531251607241209 0.8678916320952239 0  2.59787442813022 
[...]
<PointData  Vectors="f_71627"> 
<DataArray  type="Float64"  Name="f_71627"  NumberOfComponents="3" format="ascii">0.0000000000000000e+00 0.0000000000000000e+00 0.0000000000000000e+00  0.0000000000000000e+00 0.0000000000000000e+00 0.0000000000000000e+00  0.0000000000000000e+00 0.0000000000000000e+00 0.0000000000000000e+00  0.0000000000000000e+00 0.0000000000000000e+00 0.0000000000000000e+00  0.0000000000000000e+00 0.0000000000000000e+00 0.0000000000000000e+00  0.0000000000000000e+00 0.0000000000000000e+00 0.0000000000000000e+00  0.0000000000000000e+00 0.0000000000000000e+00 0.0000000000000000e+00  0.0000000000000000e+00 0.0000000000000000e+00 0.0000000000000000e+00  0.0000000000000000e+00 0.0000000000000000e+00 0.0000000000000000e+00  0.0000000000000000e+00 0.0000000000000000e+00 0.0000000000000000e+00  0.0000000000000000e+00 0.0000000000000000e+00 0.0000000000000000e+00  0.0000000000000000e+00 0.0000000000000000e+00 0.0000000000000000e+00  0.0000000000000000e+00 0.0000000000000000e+00 0.0000000000000000e+00  0.0000000000000000e+00 0.0000000000000000e+00 0.0000000000000000e+00  0.0000000000000000e+00 0.0000000000000000e+00 0.0000000000000000e+00  0.0000000000000000e+00 0.0000000000000000e+00 0.0000000000000000e+00  0.0000000000000000e+00 0.0000000000000000e+00 0.0000000000000000e+00  0.0000000000000000e+00 0.0000000000000000e+00 0.0000000000000000e+00  0.0000000000000000e+00 0.0000000000000000e+00 0.0000000000000000e+00  0.0000000000000000e+00 0.0000000000000000e+00 0.0000000000000000e+00  0.0000000000000000e+00 0.0000000000000000e+00 0.0000000000000000e+00  0.0000000000000000e+00 0.0000000000000000e+00 0.0000000000000000e+00  0.0000000000000000e+00 0.0000000000000000e+00 0.0000000000000000e+00  0.0000000000000000e+00 0.0000000000000000e+00 0.0000000000000000e+00  0.0000000000000000e+00 0.0000000000000000e+00 0.0000000000000000e+00  0.0000000000000000e+00 0.0000000000000000e+00 0.0000000000000000e+00  0.0000000000000000e+00 0.0000000000000000e+00 0.0000000000000000e+00  0.0000000000000000e+00 0.0000000000000000e+00 0.0000000000000000e+00  0.0000000000000000e+00 0.0000000000000000e+00 0.0000000000000000e+00  0.0000000000000000e+00 0.0000000000000000e+00 0.0000000000000000e+00  0.0000000000000000e+00 0.0000000000000000e+00 0.0000000000000000e+00  0.0000000000000000e+00 0.0000000000000000e+00 0.0000000000000000e+00  0.0000000000000000e+00 0.0000000000000000e+00 0.0000000000000000e+00  0.0000000000000000e+00 0.0000000000000000e+00 0.0000000000000000e+00  0.0000000000000000e+00 0.0000000000000000e+00 0.0000000000000000e+00  0.0000000000000000e+00 0.0000000000000000e+00 0.0000000000000000e+00  0.0000000000000000e+00 0.0000000000000000e+00 0.0000000000000000e+00  0.0000000000000000e+00 0.0000000000000000e+00 0.0000000000000000e+00  0.0000000000000000e+00 0.0000000000000000e+00 0.0000000000000000e+00  0.0000000000000000e+00 0.0000000000000000e+00 0.0000000000000000e+00  0.0000000000000000e+00 0.0000000000000000e+00 0.0000000000000000e+00  0.0000000000000000e+00 0.0000000000000000e+00 0.0000000000000000e+00  0.0000000000000000e+00 0.0000000000000000e+00 0.0000000000000000e+00  0.0000000000000000e+00 0.0000000000000000e+00 0.0000000000000000e+00  0.0000000000000000e+00 0.0000000000000000e+00 0.0000000000000000e+00  0.0000000000000000e+00 0.0000000000000000e+00 0.0000000000000000e+00  0.0000000000000000e+00 0.0000000000000000e+00 0.0000000000000000e+00  0.0000000000000000e+00 0.0000000000000000e+00 0.0000000000000000e+00  0.0000000000000000e+00 0.0000000000000000e+00 0.0000000000000000e+00  0.0000000000000000e+00 0.0000000000000000e+00 0.0000000000000000e+00  0.0000000000000000e+00 0.0000000000000000e+00 0.0000000000000000e+00  0.0000000000000000e+00 0.0000000000000000e+00 0.0000000000000000e+00  0.0000000000000000e+00 0.0000000000000000e+00 0.0000000000000000e+00  0.0000000000000000e+00 0.0000000000000000e+00 0.0000000000000000e+00  0.0000000000000000e+00 0.0000000000000000e+00 0.0000000000000000e+00  0.0000000000000000e+00 0.0000000000000000e+00 0.0000000000000000e+00  0.0000000000000000e+00 0.0000000000000000e+00 0.0000000000000000e+00  0.0000000000000000e+00 0.0000000000000000e+00 0.0000000000000000e+00  0.0000000000000000e+00 0.0000000000000000e+00 0.0000000000000000e+00  1.0866891044759379e+00 -1.4724047694393604e-03 0.0000000000000000e+00  1.0883151048688411e+00 5.6960597094128816e-05 0.0000000000000000e+00  1.1067332878097311e+00 -3.0703611810788296e-02 0.0000000000000000e+00  1.0862778595345528e+00 -2.1202792978488954e-03 0.0000000000000000e+00  1.0787128032804680e+00 9.9167529076128421e-04 0.0000000000000000e+00  1.5000002027478851e+00 0.0000000000000000e+00 0.0000000000000000e+00  1.1725869959730750e+00 -2.0578183520428921e-03 0.0000000000000000e+00  7.9268595759947014e-01 7.4605264456937570e-01 0.0000000000000000e+00  1.5000002027478851e+00 0.0000000000000000e+00 0.0000000000000000e+00  0.0000000000000000e+00 0.0000000000000000e+00 0.0000000000000000e+00  1.0866366862223362e+00 1.8311677247328343e-04 0.0000000000000000e+00  0.0000000000000000e+00 0.0000000000000000e+00 0.0000000000000000e+00  0.0000000000000000e+00 0.0000000000000000e+00 0.0000000000000000e+00  1.0885023850647251e+00 -5.4128249480960150e-03 0.0000000000000000e+00  0.0000000000000000e+00 0.0000000000000000e+00 0.0000000000000000e+00  0.0000000000000000e+00 0.0000000000000000e+00 0.0000000000000000e+00  0.0000000000000000e+00 0.0000000000000000e+00 0.0000000000000000e+00  1.0845992024022080e+00 7.9379925015252368e-04 0.0000000000000000e+00  0.0000000000000000e+00 0.0000000000000000e+00 0.0000000000000000e+00  0.0000000000000000e+00 0.0000000000000000e+00 0.0000000000000000e+00  1.0905816812283631e+00 2.6993899714329838e-04 0.0000000000000000e+00  0.0000000000000000e+00 0.0000000000000000e+00 0.0000000000000000e+00  0.0000000000000000e+00 0.0000000000000000e+00 0.0000000000000000e+00  0.0000000000000000e+00 0.0000000000000000e+00 0.0000000000000000e+00  0.0000000000000000e+00 0.0000000000000000e+00 0.0000000000000000e+00  0.0000000000000000e+00 0.0000000000000000e+00 0.0000000000000000e+00  0.0000000000000000e+00 0.0000000000000000e+00 0.0000000000000000e+00  0.0000000000000000e+00 0.0000000000000000e+00 0.0000000000000000e+00  1.3681842327843465e+00 -1.2807152390901052e-02 0.0000000000000000e+00  1.1211818844147141e+00 -5.3079650604492103e-03 0.0000000000000000e+00  1.0962890547520163e+00 9.6656360916794255e-06 0.0000000000000000e+00  1.0672656379943255e+00 -2.4020600539558148e-03 0.0000000000000000e+00  1.0761792141361375e+00 4.2459555396467015e-03 0.0000000000000000e+00  1.0835332650827054e+00 -2.6074563963525360e-03 0.0000000000000000e+00  1.0889108998740187e+00 9.1516426808133761e-04 0.0000000000000000e+00  1.0956243624727897e+00 2.1350464237665623e-04 0.0000000000000000e+00  1.0905681899196209e+00 -3.2884300185187319e-03 0.0000000000000000e+00  1.0878487448473366e+00 -6.6994583795625239e-03 0.0000000000000000e+00  7.5314890610223784e-01 8.8908838815660619e-03 0.0000000000000000e+00  9.3904645655120211e-01 1.6427931146996193e-02 0.0000000000000000e+00  1.0802464313338085e+00 1.8506818316762028e-03 0.0000000000000000e+00  1.1250001520609139e+00 0.0000000000000000e+00 0.0000000000000000e+00  1.4766497248330201e+00 5.6770706452901581e-02 0.0000000000000000e+00  1.1696442444637964e+00 -6.9067554190898467e-02 0.0000000000000000e+00  1.7363952935104907e+00 4.1924267737641835e-01 0.0000000000000000e+00  -1.9496304529223064e-02 -3.5664840112619528e-01 0.0000000000000000e+00  1.0871364619863011e+00 2.5341764061974658e-03 0.0000000000000000e+00  1.0915210407431268e+00 7.9796760008633300e-03 0.0000000000000000e+00  1.0926978451586513e+00 4.1728944153305364e-03 0.0000000000000000e+00  1.0834145721364268e+00 -2.7647732317782480e-04 0.0000000000000000e+00  1.0848742232146085e+00 -4.1765147887598804e-03 0.0000000000000000e+00  1.0764674662219080e+00 -1.3971382321399410e-02 0.0000000000000000e+00  1.0866334009259009e+00 -7.6798666468382069e-04 0.0000000000000000e+00  1.0893959970846310e+00 -2.4778998385329128e-03 0.0000000000000000e+00  1.0704259644718905e+00 2.3418123875616490e-03 0.0000000000000000e+00  1.0993565835519086e+00 -7.7374536663379909e-03 0.0000000000000000e+00  1.2258839852944110e+00 -7.5237049412978499e-02 0.0000000000000000e+00  0.0000000000000000e+00 0.0000000000000000e+00 0.0000000000000000e+00  1.2282808281892226e+00 -3.0010999430932511e-01 0.0000000000000000e+00  1.1250001520609139e+00 0.0000000000000000e+00 0.0000000000000000e+00  1.1062737763698822e+00 1.1053312804101480e-03 0.0000000000000000e+00  0.0000000000000000e+00 0.0000000000000000e+00 0.0000000000000000e+00  1.2619324371631744e+00 -1.1131244146422292e-03 0.0000000000000000e+00  1.0637136513983632e+00 2.2031405405661317e-01 0.0000000000000000e+00  1.7406261017283875e+00 -2.0653152621190091e-01 0.0000000000000000e+00  1.4938778582986676e+00 3.4857525625682506e-01 0.0000000000000000e+00  0.0000000000000000e+00 0.0000000000000000e+00 0.0000000000000000e+00  1.0199957770094856e+00 -1.1489379158213275e-02 0.0000000000000000e+00  1.1250001520609139e+00 0.0000000000000000e+00 0.0000000000000000e+00  1.0824203781624424e+00 -2.3609381643629542e-03 0.0000000000000000e+00  1.1250001520609139e+00 0.0000000000000000e+00 0.0000000000000000e+00  0.0000000000000000e+00 0.0000000000000000e+00 0.0000000000000000e+00  2.3336415151614522e+00 -5.3918346980350564e-02 0.0000000000000000e+00  1.0888276713641896e+00 -1.9240993216549745e-04 0.0000000000000000e+00  1.1233742363956769e+00 3.5830129092010859e-02 0.0000000000000000e+00  0.0000000000000000e+00 0.0000000000000000e+00 0.0000000000000000e+00  1.0898784863945818e+00 1.9190304477228199e-03 0.0000000000000000e+00  1.0881887566870538e+00 -2.9579396989766718e-03 0.0000000000000000e+00  1.0923827051316064e+00 -1.2413386435273363e-02 0.0000000000000000e+00  1.0941128211836453e+00 4.0816914609777006e-03 0.0000000000000000e+00  1.0837666120169764e+00 -1.9195657174474177e-03 0.0000000000000000e+00  1.0852741759025153e+00 -4.4508095781214875e-04 0.0000000000000000e+00  1.0821411203344427e+00 1.9473388691314130e-03 0.0000000000000000e+00  1.0911713273493602e+00 6.8956251598246390e-04 0.0000000000000000e+00  1.0849086622543906e+00 2.4059117277628870e-03 0.0000000000000000e+00  1.0861752350072797e+00 -2.7435286011949661e-03 0.0000000000000000e+00  1.0846973493597964e+00 -2.9829078340018757e-03 0.0000000000000000e+00  1.0894504809104124e+00 1.8525832684604959e-03 0.0000000000000000e+00  1.0732433394546379e+00 -4.5921700613119940e-02 0.0000000000000000e+00  1.0722149781909334e+00 4.7804462021866040e-04 0.0000000000000000e+00  0.0000000000000000e+00 0.0000000000000000e+00 0.0000000000000000e+00  1.0831644653459112e+00 -3.8403645485476242e-03 0.0000000000000000e+00  0.0000000000000000e+00 0.0000000000000000e+00 0.0000000000000000e+00  0.0000000000000000e+00 0.0000000000000000e+00 0.0000000000000000e+00  0.0000000000000000e+00 0.0000000000000000e+00 0.0000000000000000e+00  0.0000000000000000e+00 0.0000000000000000e+00 0.0000000000000000e+00  0.0000000000000000e+00 0.0000000000000000e+00 0.0000000000000000e+00  0.0000000000000000e+00 0.0000000000000000e+00 0.0000000000000000e+00  0.0000000000000000e+00 0.0000000000000000e+00 0.0000000000000000e+00  0.0000000000000000e+00 0.0000000000000000e+00 0.0000000000000000e+00  1.0716602517025471e+00 -1.8218488108054944e-03 0.0000000000000000e+00  0.0000000000000000e+00 0.0000000000000000e+00 0.0000000000000000e+00  0.0000000000000000e+00 0.0000000000000000e+00 0.0000000000000000e+00  0.0000000000000000e+00 0.0000000000000000e+00 0.0000000000000000e+00  0.0000000000000000e+00 0.0000000000000000e+00 0.0000000000000000e+00  0.0000000000000000e+00 0.0000000000000000e+00 0.0000000000000000e+00  0.0000000000000000e+00 0.0000000000000000e+00 0.0000000000000000e+00  0.0000000000000000e+00 0.0000000000000000e+00 0.0000000000000000e+00  0.0000000000000000e+00 0.0000000000000000e+00 0.0000000000000000e+00  0.0000000000000000e+00 0.0000000000000000e+00 0.0000000000000000e+00  0.0000000000000000e+00 0.0000000000000000e+00 0.0000000000000000e+00  0.0000000000000000e+00 0.0000000000000000e+00 0.0000000000000000e+00  0.0000000000000000e+00 0.0000000000000000e+00 0.0000000000000000e+00  0.0000000000000000e+00 0.0000000000000000e+00 0.0000000000000000e+00  0.0000000000000000e+00 0.0000000000000000e+00 0.0000000000000000e+00  0.0000000000000000e+00 0.0000000000000000e+00 0.0000000000000000e+00  0.0000000000000000e+00 0.0000000000000000e+00 0.0000000000000000e+00  0.0000000000000000e+00 0.0000000000000000e+00 0.0000000000000000e+00  0.0000000000000000e+00 0.0000000000000000e+00 0.0000000000000000e+00  1.1408226586925427e+00 -5.8337775178491586e-03 0.0000000000000000e+00  1.0824627537864095e+00 4.4094885385716756e-03 0.0000000000000000e+00  1.0864186225294195e+00 -2.2376293539497659e-03 0.0000000000000000e+00  1.0868388485061149e+00 -2.2624429606760287e-03 0.0000000000000000e+00  1.0792232731139477e+00 4.7322096697276295e-03 0.0000000000000000e+00  1.0909466731298756e+00 -3.5987193526565700e-03 0.0000000000000000e+00  1.0887147242386506e+00 -1.7402716478494929e-03 0.0000000000000000e+00  9.1670023819865798e-01 3.0369713807445055e-02 0.0000000000000000e+00  1.3458442401458592e+00 -1.5730944871477329e-01 0.0000000000000000e+00  1.3948766950875571e+00 -3.9117613228363901e-03 0.0000000000000000e+00  1.0801463507046927e+00 -2.0455005416497611e-03 0.0000000000000000e+00  1.0967837241492537e+00 -2.0157033813245863e-03 0.0000000000000000e+00  1.1531840392382018e+00 -8.5503148568627195e-03 0.0000000000000000e+00  2.0510211884553344e+00 -1.9397523718210791e-01 0.0000000000000000e+00  1.0879610369826678e+00 -3.1940640515479512e-03 0.0000000000000000e+00  1.4261141108587507e+00 -3.4547865416517665e-01 0.0000000000000000e+00  1.4039151981806852e+00 -1.9826994459277835e-02 0.0000000000000000e+00  2.0016833527130862e+00 -1.8578361948030905e-01 0.0000000000000000e+00  1.4024111563359785e+00 -6.6844826215965982e-03 0.0000000000000000e+00  1.3495599756613672e+00 -1.9782387745035878e-03 0.0000000000000000e+00  1.1504911339669217e+00 3.3546587470525031e-02 0.0000000000000000e+00  -3.6513890412901240e-01 9.1332275298548912e-02 0.0000000000000000e+00  1.6740850105420149e+00 -3.8907926578089408e-01 0.0000000000000000e+00  -2.7604675816869045e-01 -5.9953139334750305e-01 0.0000000000000000e+00  1.0940607199473296e+00 -5.4850547727107696e-04 0.0000000000000000e+00  2.0373137070280967e+00 3.2115177239243586e-01 0.0000000000000000e+00  1.8348706856495012e+00 1.1309576835130084e+00 0.0000000000000000e+00  8.5524218931687679e-01 5.6503752827808231e-03 0.0000000000000000e+00  9.3142459607145012e-01 -3.6307292475796019e-03 0.0000000000000000e+00  1.0286146041600683e+00 1.5406221111054521e-03 0.0000000000000000e+00  7.2388172270700535e-01 -5.8813953584740768e-04 0.0000000000000000e+00  1.0853864457728641e+00 8.3172898030162612e-04 0.0000000000000000e+00  1.8163673126320885e+00 5.3465813767453174e-01 0.0000000000000000e+00  -2.1379497381272022e-01 2.2371082097977060e-01 0.0000000000000000e+00  1.1199621136857594e+00 1.4274557431495277e-02 0.0000000000000000e+00  1.0173857867487597e+00 8.1968539554006490e-04 0.0000000000000000e+00  1.1813301872853932e+00 4.3058285793614415e-01 0.0000000000000000e+00  1.0921700532510752e+00 3.1674857672711544e-04 0.0000000000000000e+00  1.0844804217328980e+00 1.2544903709387585e-03 0.0000000000000000e+00  1.1046906944531587e+00 -7.4287481515818475e-03 0.0000000000000000e+00  1.0802023350479881e+00 -1.3955931950047759e-03 0.0000000000000000e+00  1.0712454150844501e+00 -3.0672921561174728e-03 0.0000000000000000e+00  1.0896605424534807e+00 -2.8309020634153244e-03 0.0000000000000000e+00  1.0486525871036689e+00 1.5157696358222727e-04 0.0000000000000000e+00  1.0783252523642612e+00 -1.8103770875078826e-03 0.0000000000000000e+00  1.0743059716831593e+00 -2.5102859860312615e-03 0.0000000000000000e+00  1.0845383663743873e+00 -4.3292359118856259e-03 0.0000000000000000e+00  1.0622714454027677e+00 3.7824745278845742e-03 0.0000000000000000e+00  1.0741832565837559e+00 1.1899028219371480e-02 0.0000000000000000e+00  6.5625008870219970e-01 0.0000000000000000e+00 0.0000000000000000e+00  8.6211231327928084e-01 -2.3897253567206168e-02 0.0000000000000000e+00  1.0751942504721541e+00 4.4583378112508467e-04 0.0000000000000000e+00  3.9772146104986139e-01 2.6208799141564574e-02 0.0000000000000000e+00  1.0854586053931372e+00 -1.6329190571238703e-03 0.0000000000000000e+00  1.0672983231626798e+00 -6.0171739785753646e-03 0.0000000000000000e+00  1.0825205536990592e+00 -1.1916423289780410e-04 0.0000000000000000e+00  1.0696076403767592e+00 -2.7682437453693961e-03 0.0000000000000000e+00  1.0912381146486581e+00 -1.9165472330368411e-03 0.0000000000000000e+00  1.0857535265093490e+00 2.5097978714367660e-04 0.0000000000000000e+00  1.1825330570146131e+00 -5.6235874120346294e-02 0.0000000000000000e+00  1.0109853312816885e+00 2.1001211815545001e-01 0.0000000000000000e+00  1.0899639342781489e+00 -8.0607486001421430e-04 0.0000000000000000e+00  1.1899555095973535e+00 1.8832674551819037e-01 0.0000000000000000e+00  1.1035698331105861e+00 -3.9257193083332774e-02 0.0000000000000000e+00  1.0969417118168803e+00 -1.1814100122592056e-01 0.0000000000000000e+00  9.2913902917345736e-01 -8.0766523530723736e-03 0.0000000000000000e+00  1.1724418533074175e+00 -1.0210871689863422e-01 0.0000000000000000e+00  1.1049219098497811e+00 -1.9369750314286219e-03 0.0000000000000000e+00  1.0779562271306702e+00 -1.2761348705173684e-03 0.0000000000000000e+00  1.8265157884627383e+00 -3.6320807417758155e-01 0.0000000000000000e+00  -6.0822034670858105e-01 -4.3424179799899315e-01 0.0000000000000000e+00  1.0812610784476522e+00 -1.7938349565795044e-03 0.0000000000000000e+00  1.4557528426227970e+00 -5.0706326415315264e-02 0.0000000000000000e+00  1.0784934784742779e+00 -1.3371658834269470e-03 0.0000000000000000e+00  1.0798477000400455e+00 -3.6997555366032665e-03 0.0000000000000000e+00  1.0871091940489470e+00 1.5183857997415199e-03 0.0000000000000000e+00  1.0873098083215968e+00 1.9702322097644117e-03 0.0000000000000000e+00  1.0939826122540641e+00 7.2352789960408834e-04 0.0000000000000000e+00  1.0891647379718454e+00 -2.1314824427647928e-03 0.0000000000000000e+00  1.0742461686453901e+00 -2.0302915268106407e-03 0.0000000000000000e+00  1.0869746996048228e+00 2.5301118768426790e-03 0.0000000000000000e+00  1.0836100644985549e+00 -4.6861778134142012e-03 0.0000000000000000e+00  1.1225670578853848e+00 -3.4406203511899245e-03 0.0000000000000000e+00  1.0842406742426443e+00 5.5006653760127197e-04 0.0000000000000000e+00  1.0880082786671148e+00 -1.9566388619485938e-03 0.0000000000000000e+00  1.0890991848270866e+00 -2.5630393585970027e-02 0.0000000000000000e+00  1.0747642316648958e+00 8.5470848042330586e-03 0.0000000000000000e+00  1.0863230020221011e+00 1.7393586517889174e-03 0.0000000000000000e+00  1.0263736854809540e+00 -1.7157461318881982e-02 0.0000000000000000e+00  1.0856926272790921e+00 -9.2571825934130575e-03 0.0000000000000000e+00  1.0865649246518854e+00 -3.3625742350629900e-03 0.0000000000000000e+00  1.0838851550485125e+00 1.2541718027445532e-03 0.0000000000000000e+00  1.0814953433589496e+00 -1.7977591200929333e-03 0.0000000000000000e+00  1.0847234346082439e+00 3.2340101001385319e-03 0.0000000000000000e+00  1.0715265902016811e+00 -2.9207302823175026e-03 0.0000000000000000e+00  1.1040082003178262e+00 4.5682744903012143e-03 0.0000000000000000e+00  1.0654554508203629e+00 -4.2952014553677568e-03 0.0000000000000000e+00  1.0546177852174945e+00 -5.0735474722630948e-04 0.0000000000000000e+00  1.0614831578156656e+00 1.9788573144413697e-04 0.0000000000000000e+00  9.9547805283635171e-01 -1.1154550187195185e-01 0.0000000000000000e+00  1.0819070115429537e+00 4.4848492181301042e-03 0.0000000000000000e+00  1.2138069165941514e+00 -4.0374572384565904e-01 0.0000000000000000e+00  9.8241855024706315e-01 -4.9366189713933775e-03 0.0000000000000000e+00  1.0727550333436560e+00 2.0468943863353229e-02 0.0000000000000000e+00  1.0864838708559539e+00 -1.78781884416309