<?xml version="1.0"?>
<VTKFile type="UnstructuredGrid"  version="0.1"  >
<UnstructuredGrid>
<Piece  NumberOfPoints="4269" NumberOfCells="8234">
<Points>
<DataArray  type="Float64"  NumberOfComponents="3"  format="ascii">0 1 0  0 0 0  7.5 0 0  7.5 1 0  1.197537668119028 0.5812868930080463 0  1.2 0.55 0  1.197537668119028 0.5187131069919538 0  1.190211303259031 0.4881966011250105 0  1.178201304837674 0.4592019000520907 0  1.161803398874989 0.4324429495415054 0  1.141421356237309 0.4085786437626905 0  1.117557050458495 0.3881966011250105 0  1.090798099947909 0.3717986951623264 0  1.06180339887499 0.3597886967409693 0  1.031286893008046 0.3524623318809725 0  1 0.35 0  0.9687131069919538 0.3524623318809725 0  0.9381966011250105 0.3597886967409694 0  0.9092019000520906 0.3717986951623264 0  0.8824429495415054 0.3881966011250105 0  0.8585786437626904 0.4085786437626905 0  0.8381966011250105 0.4324429495415054 0  0.8217986951623264 0.4592019000520907 0  0.8097886967409692 0.4881966011250107 0  0.8024623318809725 0.5187131069919539 0  0.8 0.55 0  0.8024623318809725 0.5812868930080463 0  0.8097886967409693 0.6118033988749896 0  0.8217986951623264 0.6407980999479095 0  0.8381966011250105 0.6675570504584947 0  0.8585786437626906 0.6914213562373096 0  0.8824429495415054 0.7118033988749896 0  0.9092019000520907 0.7282013048376736 0  0.9381966011250106 0.7402113032590307 0  0.9687131069919539 0.7475376681190276 0  1 0.75 0  1.031286893008046 0.7475376681190276 0  1.06180339887499 0.7402113032590307 0  1.090798099947909 0.7282013048376736 0  1.117557050458495 0.7118033988749896 0  1.141421356237309 0.6914213562373095 0  1.161803398874989 0.6675570504584947 0  1.178201304837674 0.6407980999479094 0  1.190211303259031 0.6118033988749896 0  3.75 0 0  3.75 1 0  1.875 0 0  1.875 1 0  0.9375 0 0  0.9375 1 0  1.40625 1 0  5.625 1 0  5.625 0 0  2.8125 1 0  2.8125 0 0  4.6875 0 0  4.6875 1 0  6.5625 0 0  6.5625 1 0  5.15625 0.5 0  4.21875 0.5 0  2.34375 0.5 0  3.28125 0.5 0  6.09375 0.5 0  7.5 0.5 0  6.897916666666666 0.5 0  1.842708333333333 0.5 0  0 0.5 0  0.46875 0 0  5.625 0.5302734375 0  7.03125 0 0  6.09375 1 0  2.8125 0.4697265625 0  3.28125 0 0  2.34375 1 0  2.34375 0 0  3.75 0.4697265625 0  4.21875 0 0  4.21875 1 0  4.6875 0.5302734375 0  3.28125 1 0  5.15625 0 0  6.09375 0 0  5.15625 1 0  0.46875 1 0  1.40625 0 0  7.03125 1 0  0.3954638734376499 0.5975780249976004 0  6.495833333333334 0.4072265624999998 0  5.859375 0.25 0  4.905729166666666 0.26513671875 0  4.453125 0.25 0  3.531770833333333 0.73486328125 0  3.968229166666667 0.73486328125 0  2.594270833333333 0.73486328125 0  3.030729166666667 0.73486328125 0  6.328125 0.75 0  7.198958333333334 0.3125000000000002 0  7.198958333333334 0.6874999999999998 0  5.390625 0.25 0  0 0.25 0  2.109375 0.75 0  2.109375 0.25 0  1.51921323205749 0.3418883887525936 0  1.522346610178253 0.6811769608297746 0  5.375456746419271 0.75 0  4.921875 0.76513671875 0  4.437956746419271 0.75 0  3.984375 0.23486328125 0  3.500456746419271 0.25 0  2.578125 0.23486328125 0  3.046875 0.23486328125 0  5.874543253580729 0.75 0  6.642123189445656 0.6909095493086836 0  6.746354166666666 0.2391688368055553 0  0.3197109619185111 0.2850049285972083 0  6.328125 0 0  0.6313375889370429 0.2351325552547357 0  0 0.75 0  6.252283381534729 0.2693808819694041 0  0.234375 1 0  6.948437500000001 0.7543055555555555 0  0.5934018769555939 0.7694151657947577 0  1.858854166666667 0.75 0  1.858854166666667 0.25 0  1.640625 0 0  2.093229166666667 0.5 0  7.5 0.25 0  3.282227579752604 0.75 0  7.5 0.75 0  1.171875 0 0  1.303539853147731 0.2235426933121065 0  5.148177083333333 0.2575683593749998 0  2.351822916666667 0.742431640625 0  1.640625 1 0  4.202380413457425 0.7645435094236485 0  3.047822985053062 0.4701848030090332 0  2.577177014946938 0.4701848030090332 0  4.672792740482199 0.76513671875 0  4.922822985053062 0.5298151969909668 0  5.390593497949761 0.5156244924311331 0  5.610292740482199 0.76513671875 0  3.516602579752604 0.5 0  4.45496853898097 0.4865915990446593 0  5.85753146101903 0.4865915990446593 0  3.749511210123698 0.23486328125 0  3.983397420247396 0.4999999999999999 0  2.343497975411212 0.2346270081980111 0  4.219002024588788 0.2346270081980111 0  0.703125 0 0  2.8125 0.2343755075688669 0  3.046875 0 0  2.578125 0 0  3.515625 0 0  3.984375 0 0  4.453125 1 0  5.390625 1 0  2.109375 0 0  2.109375 1 0  5.625 0.2921402030705575 0  5.390625 0 0  7.265625 0 0  6.796875 0 0  6.328125 1 0  3.046875 1 0  2.578125 1 0  3.984375 1 0  3.515625 1 0  4.453125 0 0  4.921875 0 0  5.859375 0 0  0.703125 1 0  1.171875 1 0  7.265625 1 0  4.921875 1 0  5.859375 1 0  0.234375 0 0  6.796875 1 0  6.980310975276531 0.2285890127127066 0  5.149170481934885 0.772689292163473 0  3.274170481934884 0.2273107078365268 0  6.101334126790364 0.7722468376159667 0  4.678005340872584 0.3000799877067239 0  2.8125 0.6921051326382495 0  3.75 0.6921051326382495 0  0.3515624999999999 0.8134571721668546 0  0.4990405774417521 0.4070099317153735 0  0.1789273931360182 0.625 0  6.31239060814315 0.5298877111157968 0  6.456979773992304 0.1917956348713352 0  6.699870808919271 0.4406293402777773 0  1.337539480965883 0.7944303676599538 0  6.058675797563041 0.2019812164653516 0  0.8203125 0.1643029084422534 0  0.1480856513011711 0.375 0  1.090769294689562 0.1719186776982972 0  7.291088163206459 0.5 0  7.094502414936563 0.5197902199074071 0  0.6046212059042245 0.5730066483871106 0  1.707231580809486 0.6342709161352207 0  1.685961352504593 0.8193269193390785 0  1.374721602852827 0.4600373025865813 0  6.486415510043844 0.5916440776477192 0  1.5234375 0.1508863828685116 0  1.707925830421689 0.3657739208189008 0  0.1674513225045584 0.8278776664019765 0  7.138268756771176 0.1438183366439137 0  7.1484375 0.8616388888888887 0  7.328562530764119 0.819498462930605 0  4.101073710123698 0.3678637200736647 0  1.693878467219965 0.1911955120941053 0  1.577566745468488 0.5110082404081502 0  6.6796875 0.8653871806883484 0  6.498039504430512 0.825568433346395 0  0.7562556668576472 0.8333197949571929 0  4.101045914668806 0.6255195807449272 0  5.030745188395182 0.382829047309028 0  2.476364945868651 0.6095868094762166 0  2.729359843907322 0.8460525663191247 0  2.9296875 0.8740763101564099 0  3.163518307559356 0.6254622797994247 0  3.666859843907322 0.8460525663191247 0  3.8671875 0.8740763101564099 0  4.8046875 0.12592368984359 0  3.14936031382311 0.8606990583876851 0  2.4609375 0.8747622921397776 0  5.023140791101972 0.1392266772452574 0  0 0.125 0  0.1759922923594607 0.1727589856739889 0  4.5703125 0.125 0  7.327755777818006 0.1766156770456191 0  5.5078125 0.125 0  5.719712725029036 0.1460701015352787 0  4.327848962028002 0.3674169956512513 0  5.982681121544351 0.3692637923021713 0  3.398926289876302 0.6245417594909667 0  5.281756792511996 0.3827993367299961 0  2.226822645963271 0.6252438868405666 0  2.234390064317166 0.8676616584526566 0  5.2734375 0.125 0  1.96796875 0.382568359375 0  2.234651037971999 0.3674169956512511 0  1.984114583333333 0.132568359375 0  1.9921875 0.875 0  1.984114583333333 0.632568359375 0  5.748733794462357 0.8678269127183313 0  3.3984375 0.875456329184688 0  1.512925924995415 0.8582958012121853 0  1.359299372802969 0.6275861864990343 0  4.810521420483513 0.4041767793635395 0  0.2996213306116602 0.455339710363317 0  5.999933717403708 0.6388425470751088 0  5.250033449003657 0.6388713364551682 0  3.631676045992918 0.3525406652400928 0  4.3359375 0.8816499670325881 0  4.343577437052484 0.6116511299909198 0  3.375033449003656 0.3611286635448316 0  5.763152151652243 0.6249404690537395 0  4.549347848347757 0.6249404690537396 0  5.5004588702411 0.6403667365776566 0  5.976118394847484 0.8816230218343086 0  5.054722486865804 0.6338007028640954 0  3.164542163493752 0.3520519332736524 0  2.445407482032355 0.3672168403687257 0  4.8046875 0.882568359375 0  4.1015625 0.117431640625 0  2.4609375 0.117431640625 0  2.695556894938151 0.3520510350344335 0  2.929443105061849 0.3520510350344335 0  3.881979231817319 0.3670559016511187 0  3.8671875 0.117431640625 0  4.805389247695744 0.6470047893641744 0  3.399370721942191 0.1184066543556767 0  5.274370721942192 0.881593345644323 0  3.618253274934649 0.1316869186284249 0  2.6953125 0.1171877537844335 0  2.9296875 0.1171877537844335 0  2.21873344389451 0.125 0  4.3359375 0.1171877625080073 0  0.6659898565672709 0.3986593551313873 0  7.363359022954956 0.3481046411219251 0  7.363359022954956 0.6518953588780749 0  5.487719392831826 0.3828237631077121 0  2.695054578344725 0.5809158475691247 0  2.944553877887707 0.5964065668438148 0  0.3515625 0.1201898858097106 0  5.5078125 1 0  4.5703125 1 0  5.031746201297604 0.882568359375 0  3.1640625 0 0  6.2109375 1 0  6.186845385763124 0.6336356480571081 0  4.1015625 1 0  6.810399074069772 0.6495574751396682 0  0.4740615253480797 0.2509287743856873 0  7.052064303830151 0.3684417917792242 0  6.195177069665382 0.1216488332168849 0  5.72300154718324 0.4112068202852788 0  3.879157465495092 0.6111892850691246 0  3.645760045247695 0.5809158475691247 0  6.868257400485771 0.3427840810237202 0  6.612030892260864 0.1521752713064389 0  6.615666885941117 0.3151079644097221 0  4.04296875 0.8633718902669071 0  1.183031453639096 0.8486801864185936 0  6.9140625 0 0  6.859079526500421 0.1398292786950638 0  6.808232443325651 0.7957411753922057 0  6.9140625 1 0  4.544955211100143 0.3675874343205077 0  1.0546875 1 0  6.122060236165557 0.3316791557072867 0  0.5859375 0 0  5.9765625 0 0  5.44921875 0.870984788733638 0  4.51171875 0.870984788733638 0  0.7608354256382215 0.2931261274224557 0  6.386875332239937 0.3156583003094978 0  6.985654756850997 0.6147408423643147 0  6.223797257919172 0.8535621912121121 0  5.936822413218736 0.1338376546337823 0  6.23933008800134 0.4095573603773768 0  0.5414022462152697 0.1305482677949959 0  6.331360438104348 0.1370086318183389 0  0.956404929269873 0.1374266563647954 0  1.2890625 1 0  0.691305981127761 0.6764829884281737 0  3.531251607241209 0.8678916320952239 0  2.59787442813022 
[...]
<PointData  Vectors="f_71627"> 
<DataArray  type="Float64"  Name="f_71627"  NumberOfComponents="3" format="ascii">0.0000000000000000e+00 0.0000000000000000e+00 0.0000000000000000e+00  0.0000000000000000e+00 0.0000000000000000e+00 0.0000000000000000e+00  0.0000000000000000e+00 0.0000000000000000e+00 0.0000000000000000e+00  0.0000000000000000e+00 0.0000000000000000e+00 0.0000000000000000e+00  0.0000000000000000e+00 0.0000000000000000e+00 0.0000000000000000e+00  0.0000000000000000e+00 0.0000000000000000e+00 0.0000000000000000e+00  0.0000000000000000e+00 0.0000000000000000e+00 0.0000000000000000e+00  0.0000000000000000e+00 0.0000000000000000e+00 0.0000000000000000e+00  0.0000000000000000e+00 0.0000000000000000e+00 0.0000000000000000e+00  0.0000000000000000e+00 0.0000000000000000e+00 0.0000000000000000e+00  0.0000000000000000e+00 0.0000000000000000e+00 0.0000000000000000e+00  0.0000000000000000e+00 0.0000000000000000e+00 0.0000000000000000e+00  0.0000000000000000e+00 0.0000000000000000e+00 0.0000000000000000e+00  0.0000000000000000e+00 0.0000000000000000e+00 0.0000000000000000e+00  0.0000000000000000e+00 0.0000000000000000e+00 0.0000000000000000e+00  0.0000000000000000e+00 0.0000000000000000e+00 0.0000000000000000e+00  0.0000000000000000e+00 0.0000000000000000e+00 0.0000000000000000e+00  0.0000000000000000e+00 0.0000000000000000e+00 0.0000000000000000e+00  0.0000000000000000e+00 0.0000000000000000e+00 0.0000000000000000e+00  0.0000000000000000e+00 0.0000000000000000e+00 0.0000000000000000e+00  0.0000000000000000e+00 0.0000000000000000e+00 0.0000000000000000e+00  0.0000000000000000e+00 0.0000000000000000e+00 0.0000000000000000e+00  0.0000000000000000e+00 0.0000000000000000e+00 0.0000000000000000e+00  0.0000000000000000e+00 0.0000000000000000e+00 0.0000000000000000e+00  0.0000000000000000e+00 0.0000000000000000e+00 0.0000000000000000e+00  0.0000000000000000e+00 0.0000000000000000e+00 0.0000000000000000e+00  0.0000000000000000e+00 0.0000000000000000e+00 0.0000000000000000e+00  0.0000000000000000e+00 0.0000000000000000e+00 0.0000000000000000e+00  0.0000000000000000e+00 0.0000000000000000e+00 0.0000000000000000e+00  0.0000000000000000e+00 0.0000000000000000e+00 0.0000000000000000e+00  0.0000000000000000e+00 0.0000000000000000e+00 0.0000000000000000e+00  0.0000000000000000e+00 0.0000000000000000e+00 0.0000000000000000e+00  0.0000000000000000e+00 0.0000000000000000e+00 0.0000000000000000e+00  0.0000000000000000e+00 0.0000000000000000e+00 0.0000000000000000e+00  0.0000000000000000e+00 0.0000000000000000e+00 0.0000000000000000e+00  0.0000000000000000e+00 0.0000000000000000e+00 0.0000000000000000e+00  0.0000000000000000e+00 0.0000000000000000e+00 0.0000000000000000e+00  0.0000000000000000e+00 0.0000000000000000e+00 0.0000000000000000e+00  0.0000000000000000e+00 0.0000000000000000e+00 0.0000000000000000e+00  0.0000000000000000e+00 0.0000000000000000e+00 0.0000000000000000e+00  0.0000000000000000e+00 0.0000000000000000e+00 0.0000000000000000e+00  0.0000000000000000e+00 0.0000000000000000e+00 0.0000000000000000e+00  0.0000000000000000e+00 0.0000000000000000e+00 0.0000000000000000e+00  0.0000000000000000e+00 0.0000000000000000e+00 0.0000000000000000e+00  0.0000000000000000e+00 0.0000000000000000e+00 0.0000000000000000e+00  0.0000000000000000e+00 0.0000000000000000e+00 0.0000000000000000e+00  0.0000000000000000e+00 0.0000000000000000e+00 0.0000000000000000e+00  0.0000000000000000e+00 0.0000000000000000e+00 0.0000000000000000e+00  0.0000000000000000e+00 0.0000000000000000e+00 0.0000000000000000e+00  0.0000000000000000e+00 0.0000000000000000e+00 0.0000000000000000e+00  0.0000000000000000e+00 0.0000000000000000e+00 0.0000000000000000e+00  0.0000000000000000e+00 0.0000000000000000e+00 0.0000000000000000e+00  0.0000000000000000e+00 0.0000000000000000e+00 0.0000000000000000e+00  0.0000000000000000e+00 0.0000000000000000e+00 0.0000000000000000e+00  0.0000000000000000e+00 0.0000000000000000e+00 0.0000000000000000e+00  0.0000000000000000e+00 0.0000000000000000e+00 0.0000000000000000e+00  0.0000000000000000e+00 0.0000000000000000e+00 0.0000000000000000e+00  0.0000000000000000e+00 0.0000000000000000e+00 0.0000000000000000e+00  0.0000000000000000e+00 0.0000000000000000e+00 0.0000000000000000e+00  1.5984517063638539e+00 -3.3753010492061514e-01 0.0000000000000000e+00  1.5036953277817284e+00 -1.1795764341569330e+00 0.0000000000000000e+00  1.9970193442111523e+00 -2.0997211498326807e-01 0.0000000000000000e+00  1.7048092364158229e+00 -9.3946569877836994e-01 0.0000000000000000e+00  1.5303186360648418e+00 4.4409090804958601e-01 0.0000000000000000e+00  1.5000002374543335e+00 0.0000000000000000e+00 0.0000000000000000e+00  1.7881192584923742e+00 9.7678170129919484e-01 0.0000000000000000e+00  1.1729520942817668e+00 5.0589302140159542e-01 0.0000000000000000e+00  1.5000002374543335e+00 0.0000000000000000e+00 0.0000000000000000e+00  0.0000000000000000e+00 0.0000000000000000e+00 0.0000000000000000e+00  1.7703059198431630e+00 -8.3583163677547118e-02 0.0000000000000000e+00  0.0000000000000000e+00 0.0000000000000000e+00 0.0000000000000000e+00  0.0000000000000000e+00 0.0000000000000000e+00 0.0000000000000000e+00  1.4747585382485051e+00 4.1006298534602026e-01 0.0000000000000000e+00  0.0000000000000000e+00 0.0000000000000000e+00 0.0000000000000000e+00  0.0000000000000000e+00 0.0000000000000000e+00 0.0000000000000000e+00  0.0000000000000000e+00 0.0000000000000000e+00 0.0000000000000000e+00  1.5568419699722460e+00 1.2160160714067627e+00 0.0000000000000000e+00  0.0000000000000000e+00 0.0000000000000000e+00 0.0000000000000000e+00  0.0000000000000000e+00 0.0000000000000000e+00 0.0000000000000000e+00  1.6059459228448631e+00 1.0428424662668669e+00 0.0000000000000000e+00  0.0000000000000000e+00 0.0000000000000000e+00 0.0000000000000000e+00  0.0000000000000000e+00 0.0000000000000000e+00 0.0000000000000000e+00  0.0000000000000000e+00 0.0000000000000000e+00 0.0000000000000000e+00  0.0000000000000000e+00 0.0000000000000000e+00 0.0000000000000000e+00  0.0000000000000000e+00 0.0000000000000000e+00 0.0000000000000000e+00  0.0000000000000000e+00 0.0000000000000000e+00 0.0000000000000000e+00  0.0000000000000000e+00 0.0000000000000000e+00 0.0000000000000000e+00  1.3633695021289749e+00 -5.5663048390179388e-02 0.0000000000000000e+00  1.7716526691089673e+00 -5.3854786308868841e-01 0.0000000000000000e+00  1.3312808314383668e+00 6.1317832571791908e-01 0.0000000000000000e+00  1.3872988239846955e+00 3.2603264213727878e-01 0.0000000000000000e+00  1.8619023407560125e+00 -2.9245929651310143e-01 0.0000000000000000e+00  -3.7880929352665883e-02 6.1639540065307796e-01 0.0000000000000000e+00  1.0594176983020593e+00 7.3948638122222271e-02 0.0000000000000000e+00  5.6692264189378554e-02 1.0040881169194429e+00 0.0000000000000000e+00  9.5287514271889495e-01 -4.6932318698946623e-01 0.0000000000000000e+00  1.0903672780275417e+00 -3.5435631451129934e-01 0.0000000000000000e+00  1.1045827047647478e+00 3.1051957847479827e-01 0.0000000000000000e+00  1.2169547183563936e+00 1.0330916276516151e-01 0.0000000000000000e+00  1.4038100443381520e+00 -4.6986936256552636e-01 0.0000000000000000e+00  1.1250001780907501e+00 0.0000000000000000e+00 0.0000000000000000e+00  4.9248040833458312e-01 -4.4068465780662486e-01 0.0000000000000000e+00  8.6061676539609189e-01 -1.1377938320968279e+00 0.0000000000000000e+00  2.0303994578372313e+00 1.0528028667667788e+00 0.0000000000000000e+00  -4.5141769976666918e-01 7.0806262253365657e-02 0.0000000000000000e+00  3.3475573198106345e-01 -8.3337314645853477e-01 0.0000000000000000e+00  7.8236878820173517e-01 2.9924111058112929e-01 0.0000000000000000e+00  -7.5319012459510351e-02 -2.0975189872867170e-01 0.0000000000000000e+00  9.0801285336428639e-01 3.0062281214017711e-01 0.0000000000000000e+00  2.0338779134243770e+00 -1.5158257588322354e-02 0.0000000000000000e+00  1.4467780118108338e+00 5.1520000593644044e-01 0.0000000000000000e+00  1.2387872023610571e+00 -4.7585790190158439e-01 0.0000000000000000e+00  5.2401870342541201e-01 9.3053499493364122e-01 0.0000000000000000e+00  6.8269151451877363e-01 -5.0918861708092567e-01 0.0000000000000000e+00  1.4960685025814289e+00 3.6421538511561141e-01 0.0000000000000000e+00  1.2371195825373404e+00 -1.0486782171351033e-01 0.0000000000000000e+00  0.0000000000000000e+00 0.0000000000000000e+00 0.0000000000000000e+00  1.2808846368668743e+00 -3.2790060220668860e-01 0.0000000000000000e+00  1.1250001780907501e+00 0.0000000000000000e+00 0.0000000000000000e+00  9.7728480234965376e-01 -2.4678667840575183e-01 0.0000000000000000e+00  0.0000000000000000e+00 0.0000000000000000e+00 0.0000000000000000e+00  5.9635576516264976e-01 7.9275225681325845e-01 0.0000000000000000e+00  1.0126459783547401e+00 1.8018920691947260e-01 0.0000000000000000e+00  1.7107421526296918e+00 -6.2886186500383257e-01 0.0000000000000000e+00  7.6749857422269607e-01 3.1002583889916430e-01 0.0000000000000000e+00  0.0000000000000000e+00 0.0000000000000000e+00 0.0000000000000000e+00  2.0988568127268850e+00 -1.6280414423160214e+00 0.0000000000000000e+00  1.1250001780907501e+00 0.0000000000000000e+00 0.0000000000000000e+00  2.6189749229441567e-01 -6.8354363092388604e-01 0.0000000000000000e+00  1.1250001780907501e+00 0.0000000000000000e+00 0.0000000000000000e+00  0.0000000000000000e+00 0.0000000000000000e+00 0.0000000000000000e+00  2.2143596837764425e+00 2.8531578402302737e-01 0.0000000000000000e+00  1.2893733112989230e+00 -1.4048958209091189e-02 0.0000000000000000e+00  -4.7213963576773660e-01 -4.3832956153168234e-01 0.0000000000000000e+00  0.0000000000000000e+00 0.0000000000000000e+00 0.0000000000000000e+00  5.7166324070513241e-01 -6.3082452261080157e-01 0.0000000000000000e+00  1.5948471984075792e+00 -7.6113921098374726e-01 0.0000000000000000e+00  1.8998906373852686e+00 1.0608062187002527e+00 0.0000000000000000e+00  2.7723471857970305e-01 6.1560410364070206e-01 0.0000000000000000e+00  1.5830245305663773e+00 7.0641040006559119e-01 0.0000000000000000e+00  1.8068678689903437e+00 -8.9893034963774698e-01 0.0000000000000000e+00  3.2424269063325351e-01 4.7194530045139231e-02 0.0000000000000000e+00  2.1277638391371805e+00 2.1553187823282893e-01 0.0000000000000000e+00  1.5425446161579051e+00 -5.4283429212978285e-01 0.0000000000000000e+00  1.7531848833769101e+00 9.8876035502914972e-01 0.0000000000000000e+00  1.3997119714375543e+00 5.6872367205562813e-01 0.0000000000000000e+00  1.3111354997651823e+00 3.8708433445153673e-01 0.0000000000000000e+00  1.7741546421834735e+00 -4.6059867892965983e-02 0.0000000000000000e+00  1.0694008065540561e+00 -5.1668364574568504e-01 0.0000000000000000e+00  0.0000000000000000e+00 0.0000000000000000e+00 0.0000000000000000e+00  1.2594965408596137e+00 2.5612389783141859e-01 0.0000000000000000e+00  0.0000000000000000e+00 0.0000000000000000e+00 0.0000000000000000e+00  0.0000000000000000e+00 0.0000000000000000e+00 0.0000000000000000e+00  0.0000000000000000e+00 0.0000000000000000e+00 0.0000000000000000e+00  0.0000000000000000e+00 0.0000000000000000e+00 0.0000000000000000e+00  0.0000000000000000e+00 0.0000000000000000e+00 0.0000000000000000e+00  0.0000000000000000e+00 0.0000000000000000e+00 0.0000000000000000e+00  0.0000000000000000e+00 0.0000000000000000e+00 0.0000000000000000e+00  0.0000000000000000e+00 0.0000000000000000e+00 0.0000000000000000e+00  1.8792703303245699e+00 -1.0984111665662978e-01 0.0000000000000000e+00  0.0000000000000000e+00 0.0000000000000000e+00 0.0000000000000000e+00  0.0000000000000000e+00 0.0000000000000000e+00 0.0000000000000000e+00  0.0000000000000000e+00 0.0000000000000000e+00 0.0000000000000000e+00  0.0000000000000000e+00 0.0000000000000000e+00 0.0000000000000000e+00  0.0000000000000000e+00 0.0000000000000000e+00 0.0000000000000000e+00  0.0000000000000000e+00 0.0000000000000000e+00 0.0000000000000000e+00  0.0000000000000000e+00 0.0000000000000000e+00 0.0000000000000000e+00  0.0000000000000000e+00 0.0000000000000000e+00 0.0000000000000000e+00  0.0000000000000000e+00 0.0000000000000000e+00 0.0000000000000000e+00  0.0000000000000000e+00 0.0000000000000000e+00 0.0000000000000000e+00  0.0000000000000000e+00 0.0000000000000000e+00 0.0000000000000000e+00  0.0000000000000000e+00 0.0000000000000000e+00 0.0000000000000000e+00  0.0000000000000000e+00 0.0000000000000000e+00 0.0000000000000000e+00  0.0000000000000000e+00 0.0000000000000000e+00 0.0000000000000000e+00  0.0000000000000000e+00 0.0000000000000000e+00 0.0000000000000000e+00  0.0000000000000000e+00 0.0000000000000000e+00 0.0000000000000000e+00  0.0000000000000000e+00 0.0000000000000000e+00 0.0000000000000000e+00  0.0000000000000000e+00 0.0000000000000000e+00 0.0000000000000000e+00  1.0715665093839482e+00 8.0264067294235042e-01 0.0000000000000000e+00  1.0129810575345692e+00 -2.4908696251914386e-01 0.0000000000000000e+00  1.5079476555827434e+00 -3.4020644018046337e-01 0.0000000000000000e+00  1.0577178993780962e+00 1.8333417789622916e-01 0.0000000000000000e+00  2.0326393787903836e+00 7.9261457217481524e-01 0.0000000000000000e+00  1.3365110629160386e+00 3.0515039528692467e-01 0.0000000000000000e+00  6.5282077139734296e-01 1.0195193755170473e+00 0.0000000000000000e+00  8.9638340559316265e-01 5.4068282847812496e-03 0.0000000000000000e+00  1.3640725099273168e+00 -2.0734299872838485e-01 0.0000000000000000e+00  1.3942832561669645e+00 -2.3176541278867376e-02 0.0000000000000000e+00  1.5863400182298981e+00 -7.0027073332581702e-01 0.0000000000000000e+00  1.0832773144362913e+00 -3.9707693354483781e-01 0.0000000000000000e+00  1.9540817604894103e+00 7.1056084261758024e-02 0.0000000000000000e+00  1.8480040022940589e+00 -3.7770502095484909e-01 0.0000000000000000e+00  6.6257458630831922e-01 3.1795400538863522e-01 0.0000000000000000e+00  1.5068725214007830e+00 -3.3895518945713321e-01 0.0000000000000000e+00  1.4047047343273598e+00 -3.3602781872886837e-02 0.0000000000000000e+00  2.0333198467149560e+00 -5.6218745282114013e-02 0.0000000000000000e+00  1.3815036879258367e+00 1.1918173731042425e+00 0.0000000000000000e+00  1.6498571261753376e+00 1.2570951598948337e+00 0.0000000000000000e+00  1.1414061912329465e+00 -2.8818284941542923e-02 0.0000000000000000e+00  5.8232415871034393e-01 5.5220691743347483e-01 0.0000000000000000e+00  1.6449392958342550e+00 -2.5932662776983695e-01 0.0000000000000000e+00  8.0509747527746178e-01 -8.4476957999796820e-02 0.0000000000000000e+00  1.3999939759674933e+00 -7.7892461993312201e-01 0.0000000000000000e+00  1.5459004160488423e+00 3.8235983045575400e-01 0.0000000000000000e+00  1.2970394744196450e+00 7.3594628152872765e-01 0.0000000000000000e+00  8.4960307860497253e-01 -6.6314561257812083e-03 0.0000000000000000e+00  1.9503798650844906e-01 5.2013875594557024e-01 0.0000000000000000e+00  1.0815718037065067e+00 3.4361935639616453e-01 0.0000000000000000e+00  1.2972083027925401e+00 -5.7358103580997091e-02 0.0000000000000000e+00  1.4596661435809499e+00 -3.7829894437941664e-01 0.0000000000000000e+00  1.1728799378953392e+00 2.7961247267335670e-01 0.0000000000000000e+00  8.9903069374119526e-01 1.5059018847989378e+00 0.0000000000000000e+00  -1.3822706399969131e-01 -1.1659146619709483e-01 0.0000000000000000e+00  7.2551013934428185e-02 -5.0043622398605647e-01 0.0000000000000000e+00  1.0913463397396672e+00 3.9452379255271053e-01 0.0000000000000000e+00  1.2644400331068624e+00 -4.3840337734170204e-01 0.0000000000000000e+00  1.4924878956859935e+00 2.1070399865867834e-01 0.0000000000000000e+00  1.2947730618375812e+00 6.3571851582878502e-01 0.0000000000000000e+00  7.5192248086272573e-01 2.5397259419788398e-01 0.0000000000000000e+00  6.9417098346483663e-01 -1.7548761058332401e-02 0.0000000000000000e+00  1.1584654769454141e+00 -8.3398919677994598e-01 0.0000000000000000e+00  -8.0957787434738776e-02 3.5420304369385713e-01 0.0000000000000000e+00  7.7717599967906192e-01 1.1370407504168992e-01 0.0000000000000000e+00  8.8292590521086523e-01 1.9497384092438225e-01 0.0000000000000000e+00  2.8279820205167061e-01 -3.3916640963652817e-01 0.0000000000000000e+00  -1.1078628532623649e-01 1.0601315680605303e-01 0.0000000000000000e+00  5.8385732730864193e-01 1.8633864093002356e-01 0.0000000000000000e+00  6.5625010388627092e-01 0.0000000000000000e+00 0.0000000000000000e+00  8.6634947038217425e-01 -3.5245643760122396e-02 0.0000000000000000e+00  1.5539147050385396e+00 2.5681942185551437e-01 0.0000000000000000e+00  2.3296444345104797e-01 2.0641109328910598e-01 0.0000000000000000e+00  8.5458635838548413e-01 -1.6302750931696366e-01 0.0000000000000000e+00  1.0971311690671224e+00 1.8212910650303421e-01 0.0000000000000000e+00  1.9452511661795486e+00 -1.0873767242737185e+00 0.0000000000000000e+00  1.5341811252090127e+00 8.8447341661872914e-01 0.0000000000000000e+00  9.1265435741072976e-01 -7.2106103864348847e-01 0.0000000000000000e+00  1.7008057752042938e+00 -5.1241640892941120e-01 0.0000000000000000e+00  7.9871452511080177e-01 -1.0380935612374067e+00 0.0000000000000000e+00  1.3943888397842252e-01 -1.9755223412465803e-01 0.0000000000000000e+00  4.5236362763072230e-01 -2.5164495009140730e-01 0.0000000000000000e+00  1.4060805329322155e+00 -3.4234883609348155e-01 0.0000000000000000e+00  2.0822884734001050e+00 -9.0771415585382531e-01 0.0000000000000000e+00  5.0950174565608075e-01 -1.4403931188097108e-01 0.0000000000000000e+00  5.1402024566726989e-01 4.3029548018117078e-02 0.0000000000000000e+00  1.8542100807061925e+00 -1.1291712864879797e+00 0.0000000000000000e+00  -6.4666859672288621e-02 2.9144485368214451e-01 0.0000000000000000e+00  -1.7465777534224186e-01 -2.0946121331500508e-01 0.0000000000000000e+00  1.5356766216954352e+00 -2.4492931466610002e-01 0.0000000000000000e+00  -1.1751225131869913e+00 -6.9322317309202297e-01 0.0000000000000000e+00  1.8117279580535997e+00 9.9907087915905968e-01 0.0000000000000000e+00  1.4600573072425902e+00 -8.4401234637803843e-02 0.0000000000000000e+00  1.3359443263794299e+00 9.0323936682956196e-01 0.0000000000000000e+00  1.2680331621720931e+00 -6.9861233076857165e-01 0.0000000000000000e+00  1.8036990795833356e+00 6.6884354758291820e-01 0.0000000000000000e+00  -1.2588031494979052e-02 -1.6239322137668480e-01 0.0000000000000000e+00  9.3241361149651358e-01 -8.9212610330004172e-01 0.0000000000000000e+00  2.1173572965117917e+00 -5.3994025678621360e-01 0.0000000000000000e+00  1.0453217225533711e+00 5.9082384055190995e-01 0.0000000000000000e+00  8.9842069034553651e-01 2.1791313938117698e-01 0.0000000000000000e+00  1.1437712918468899e+00 -6.1575500725724808e-01 0.0000000000000000e+00  6.8966438637077776e-01 1.7640484903881318e-01 0.0000000000000000e+00  1.3839981266747525e+00 9.0028987597431304e-02 0.0000000000000000e+00  1.6883538157288791e+00 -7.1495892230817015e-01 0.0000000000000000e+00  1.9862013491420882e+00 4.4251912817420030e-01 0.0000000000000000e+00  3.0410985583608680e-01 3.1455717045345755e-01 0.0000000000000000e+00  3.7835402156518255e-01 -9.9289858514756330e-02 0.0000000000000000e+00  1.1506395590917333e+00 1.4362135556915923e-01 0.0000000000000000e+00  1.4610975365110621e+00 7.6322270084909494e-01 0.0000000000000000e+00  1.3218045168318946e+00 -3.2702668704350940e-01 0.0000000000000000e+00  1.4537529172286525e+00 7.6457089620444729e-01 0.0000000000000000e+00  7.0228381021633235e-01 1.3078006435152520e-01 0.0000000000000000e+00  1.1001677010732558e+00 9.3852965890267148e-01 0.0000000000000000e+00  1.2053113278803713e+00 2.6689606559791530e-02 0.0000000000000000e+00  5.7302684391306857e-01 -1.2923797695245146e-01 0.0000000000000000e+00  1.5504684378919760e+00 1.8626734268529710e-01 0.0000000000000000e+00  4.5286189778516200e-01 3.8512300515444670e-01 0.0000000000000000e+00  5.5127643205147125e-01 -1.0809399136276521e-01 0.0000000000000000e+00  1.3362789717880830e+00 -2.1992127752536653e-01 0.0000000000000000e+00  1.0544069414506096e+00 -3.5406660819682745e-01 0.0000000000000000e+00  1.2512086071527382e+00 -4.5915399578163996e-01 0.0000000000000000e+00  1.3791447303477935e+00 2.8857233988273540e-01 0.0000000000000000e+00  1.5324575632333206e+00 -8.2593570504066260e-01 0.0000000000000000e+00  2.0966625611655068e+00 -7.7610561346410178e-01 0.