<?xml version="1.0"?>
<VTKFile type="UnstructuredGrid"  version="0.1"  >
<UnstructuredGrid>
<Piece  NumberOfPoints="4269" NumberOfCells="8234">
<Points>
<DataArray  type="Float64"  NumberOfComponents="3"  format="ascii">0 1 0  0 0 0  7.5 0 0  7.5 1 0  1.197537668119028 0.5812868930080463 0  1.2 0.55 0  1.197537668119028 0.5187131069919538 0  1.190211303259031 0.4881966011250105 0  1.178201304837674 0.4592019000520907 0  1.161803398874989 0.4324429495415054 0  1.141421356237309 0.4085786437626905 0  1.117557050458495 0.3881966011250105 0  1.090798099947909 0.3717986951623264 0  1.06180339887499 0.3597886967409693 0  1.031286893008046 0.3524623318809725 0  1 0.35 0  0.9687131069919538 0.3524623318809725 0  0.9381966011250105 0.3597886967409694 0  0.9092019000520906 0.3717986951623264 0  0.8824429495415054 0.3881966011250105 0  0.8585786437626904 0.4085786437626905 0  0.8381966011250105 0.4324429495415054 0  0.8217986951623264 0.4592019000520907 0  0.8097886967409692 0.4881966011250107 0  0.8024623318809725 0.5187131069919539 0  0.8 0.55 0  0.8024623318809725 0.5812868930080463 0  0.8097886967409693 0.6118033988749896 0  0.8217986951623264 0.6407980999479095 0  0.8381966011250105 0.6675570504584947 0  0.8585786437626906 0.6914213562373096 0  0.8824429495415054 0.7118033988749896 0  0.9092019000520907 0.7282013048376736 0  0.9381966011250106 0.7402113032590307 0  0.9687131069919539 0.7475376681190276 0  1 0.75 0  1.031286893008046 0.7475376681190276 0  1.06180339887499 0.7402113032590307 0  1.090798099947909 0.7282013048376736 0  1.117557050458495 0.7118033988749896 0  1.141421356237309 0.6914213562373095 0  1.161803398874989 0.6675570504584947 0  1.178201304837674 0.6407980999479094 0  1.190211303259031 0.6118033988749896 0  3.75 0 0  3.75 1 0  1.875 0 0  1.875 1 0  0.9375 0 0  0.9375 1 0  1.40625 1 0  5.625 1 0  5.625 0 0  2.8125 1 0  2.8125 0 0  4.6875 0 0  4.6875 1 0  6.5625 0 0  6.5625 1 0  5.15625 0.5 0  4.21875 0.5 0  2.34375 0.5 0  3.28125 0.5 0  6.09375 0.5 0  7.5 0.5 0  6.897916666666666 0.5 0  1.842708333333333 0.5 0  0 0.5 0  0.46875 0 0  5.625 0.5302734375 0  7.03125 0 0  6.09375 1 0  2.8125 0.4697265625 0  3.28125 0 0  2.34375 1 0  2.34375 0 0  3.75 0.4697265625 0  4.21875 0 0  4.21875 1 0  4.6875 0.5302734375 0  3.28125 1 0  5.15625 0 0  6.09375 0 0  5.15625 1 0  0.46875 1 0  1.40625 0 0  7.03125 1 0  0.3954638734376499 0.5975780249976004 0  6.495833333333334 0.4072265624999998 0  5.859375 0.25 0  4.905729166666666 0.26513671875 0  4.453125 0.25 0  3.531770833333333 0.73486328125 0  3.968229166666667 0.73486328125 0  2.594270833333333 0.73486328125 0  3.030729166666667 0.73486328125 0  6.328125 0.75 0  7.198958333333334 0.3125000000000002 0  7.198958333333334 0.6874999999999998 0  5.390625 0.25 0  0 0.25 0  2.109375 0.75 0  2.109375 0.25 0  1.51921323205749 0.3418883887525936 0  1.522346610178253 0.6811769608297746 0  5.375456746419271 0.75 0  4.921875 0.76513671875 0  4.437956746419271 0.75 0  3.984375 0.23486328125 0  3.500456746419271 0.25 0  2.578125 0.23486328125 0  3.046875 0.23486328125 0  5.874543253580729 0.75 0  6.642123189445656 0.6909095493086836 0  6.746354166666666 0.2391688368055553 0  0.3197109619185111 0.2850049285972083 0  6.328125 0 0  0.6313375889370429 0.2351325552547357 0  0 0.75 0  6.252283381534729 0.2693808819694041 0  0.234375 1 0  6.948437500000001 0.7543055555555555 0  0.5934018769555939 0.7694151657947577 0  1.858854166666667 0.75 0  1.858854166666667 0.25 0  1.640625 0 0  2.093229166666667 0.5 0  7.5 0.25 0  3.282227579752604 0.75 0  7.5 0.75 0  1.171875 0 0  1.303539853147731 0.2235426933121065 0  5.148177083333333 0.2575683593749998 0  2.351822916666667 0.742431640625 0  1.640625 1 0  4.202380413457425 0.7645435094236485 0  3.047822985053062 0.4701848030090332 0  2.577177014946938 0.4701848030090332 0  4.672792740482199 0.76513671875 0  4.922822985053062 0.5298151969909668 0  5.390593497949761 0.5156244924311331 0  5.610292740482199 0.76513671875 0  3.516602579752604 0.5 0  4.45496853898097 0.4865915990446593 0  5.85753146101903 0.4865915990446593 0  3.749511210123698 0.23486328125 0  3.983397420247396 0.4999999999999999 0  2.343497975411212 0.2346270081980111 0  4.219002024588788 0.2346270081980111 0  0.703125 0 0  2.8125 0.2343755075688669 0  3.046875 0 0  2.578125 0 0  3.515625 0 0  3.984375 0 0  4.453125 1 0  5.390625 1 0  2.109375 0 0  2.109375 1 0  5.625 0.2921402030705575 0  5.390625 0 0  7.265625 0 0  6.796875 0 0  6.328125 1 0  3.046875 1 0  2.578125 1 0  3.984375 1 0  3.515625 1 0  4.453125 0 0  4.921875 0 0  5.859375 0 0  0.703125 1 0  1.171875 1 0  7.265625 1 0  4.921875 1 0  5.859375 1 0  0.234375 0 0  6.796875 1 0  6.980310975276531 0.2285890127127066 0  5.149170481934885 0.772689292163473 0  3.274170481934884 0.2273107078365268 0  6.101334126790364 0.7722468376159667 0  4.678005340872584 0.3000799877067239 0  2.8125 0.6921051326382495 0  3.75 0.6921051326382495 0  0.3515624999999999 0.8134571721668546 0  0.4990405774417521 0.4070099317153735 0  0.1789273931360182 0.625 0  6.31239060814315 0.5298877111157968 0  6.456979773992304 0.1917956348713352 0  6.699870808919271 0.4406293402777773 0  1.337539480965883 0.7944303676599538 0  6.058675797563041 0.2019812164653516 0  0.8203125 0.1643029084422534 0  0.1480856513011711 0.375 0  1.090769294689562 0.1719186776982972 0  7.291088163206459 0.5 0  7.094502414936563 0.5197902199074071 0  0.6046212059042245 0.5730066483871106 0  1.707231580809486 0.6342709161352207 0  1.685961352504593 0.8193269193390785 0  1.374721602852827 0.4600373025865813 0  6.486415510043844 0.5916440776477192 0  1.5234375 0.1508863828685116 0  1.707925830421689 0.3657739208189008 0  0.1674513225045584 0.8278776664019765 0  7.138268756771176 0.1438183366439137 0  7.1484375 0.8616388888888887 0  7.328562530764119 0.819498462930605 0  4.101073710123698 0.3678637200736647 0  1.693878467219965 0.1911955120941053 0  1.577566745468488 0.5110082404081502 0  6.6796875 0.8653871806883484 0  6.498039504430512 0.825568433346395 0  0.7562556668576472 0.8333197949571929 0  4.101045914668806 0.6255195807449272 0  5.030745188395182 0.382829047309028 0  2.476364945868651 0.6095868094762166 0  2.729359843907322 0.8460525663191247 0  2.9296875 0.8740763101564099 0  3.163518307559356 0.6254622797994247 0  3.666859843907322 0.8460525663191247 0  3.8671875 0.8740763101564099 0  4.8046875 0.12592368984359 0  3.14936031382311 0.8606990583876851 0  2.4609375 0.8747622921397776 0  5.023140791101972 0.1392266772452574 0  0 0.125 0  0.1759922923594607 0.1727589856739889 0  4.5703125 0.125 0  7.327755777818006 0.1766156770456191 0  5.5078125 0.125 0  5.719712725029036 0.1460701015352787 0  4.327848962028002 0.3674169956512513 0  5.982681121544351 0.3692637923021713 0  3.398926289876302 0.6245417594909667 0  5.281756792511996 0.3827993367299961 0  2.226822645963271 0.6252438868405666 0  2.234390064317166 0.8676616584526566 0  5.2734375 0.125 0  1.96796875 0.382568359375 0  2.234651037971999 0.3674169956512511 0  1.984114583333333 0.132568359375 0  1.9921875 0.875 0  1.984114583333333 0.632568359375 0  5.748733794462357 0.8678269127183313 0  3.3984375 0.875456329184688 0  1.512925924995415 0.8582958012121853 0  1.359299372802969 0.6275861864990343 0  4.810521420483513 0.4041767793635395 0  0.2996213306116602 0.455339710363317 0  5.999933717403708 0.6388425470751088 0  5.250033449003657 0.6388713364551682 0  3.631676045992918 0.3525406652400928 0  4.3359375 0.8816499670325881 0  4.343577437052484 0.6116511299909198 0  3.375033449003656 0.3611286635448316 0  5.763152151652243 0.6249404690537395 0  4.549347848347757 0.6249404690537396 0  5.5004588702411 0.6403667365776566 0  5.976118394847484 0.8816230218343086 0  5.054722486865804 0.6338007028640954 0  3.164542163493752 0.3520519332736524 0  2.445407482032355 0.3672168403687257 0  4.8046875 0.882568359375 0  4.1015625 0.117431640625 0  2.4609375 0.117431640625 0  2.695556894938151 0.3520510350344335 0  2.929443105061849 0.3520510350344335 0  3.881979231817319 0.3670559016511187 0  3.8671875 0.117431640625 0  4.805389247695744 0.6470047893641744 0  3.399370721942191 0.1184066543556767 0  5.274370721942192 0.881593345644323 0  3.618253274934649 0.1316869186284249 0  2.6953125 0.1171877537844335 0  2.9296875 0.1171877537844335 0  2.21873344389451 0.125 0  4.3359375 0.1171877625080073 0  0.6659898565672709 0.3986593551313873 0  7.363359022954956 0.3481046411219251 0  7.363359022954956 0.6518953588780749 0  5.487719392831826 0.3828237631077121 0  2.695054578344725 0.5809158475691247 0  2.944553877887707 0.5964065668438148 0  0.3515625 0.1201898858097106 0  5.5078125 1 0  4.5703125 1 0  5.031746201297604 0.882568359375 0  3.1640625 0 0  6.2109375 1 0  6.186845385763124 0.6336356480571081 0  4.1015625 1 0  6.810399074069772 0.6495574751396682 0  0.4740615253480797 0.2509287743856873 0  7.052064303830151 0.3684417917792242 0  6.195177069665382 0.1216488332168849 0  5.72300154718324 0.4112068202852788 0  3.879157465495092 0.6111892850691246 0  3.645760045247695 0.5809158475691247 0  6.868257400485771 0.3427840810237202 0  6.612030892260864 0.1521752713064389 0  6.615666885941117 0.3151079644097221 0  4.04296875 0.8633718902669071 0  1.183031453639096 0.8486801864185936 0  6.9140625 0 0  6.859079526500421 0.1398292786950638 0  6.808232443325651 0.7957411753922057 0  6.9140625 1 0  4.544955211100143 0.3675874343205077 0  1.0546875 1 0  6.122060236165557 0.3316791557072867 0  0.5859375 0 0  5.9765625 0 0  5.44921875 0.870984788733638 0  4.51171875 0.870984788733638 0  0.7608354256382215 0.2931261274224557 0  6.386875332239937 0.3156583003094978 0  6.985654756850997 0.6147408423643147 0  6.223797257919172 0.8535621912121121 0  5.936822413218736 0.1338376546337823 0  6.23933008800134 0.4095573603773768 0  0.5414022462152697 0.1305482677949959 0  6.331360438104348 0.1370086318183389 0  0.956404929269873 0.1374266563647954 0  1.2890625 1 0  0.691305981127761 0.6764829884281737 0  3.531251607241209 0.8678916320952239 0  2.59787442813022 
[...]
<PointData  Vectors="f_71627"> 
<DataArray  type="Float64"  Name="f_71627"  NumberOfComponents="3" format="ascii">0.0000000000000000e+00 0.0000000000000000e+00 0.0000000000000000e+00  0.0000000000000000e+00 0.0000000000000000e+00 0.0000000000000000e+00  0.0000000000000000e+00 0.0000000000000000e+00 0.0000000000000000e+00  0.0000000000000000e+00 0.0000000000000000e+00 0.0000000000000000e+00  0.0000000000000000e+00 0.0000000000000000e+00 0.0000000000000000e+00  0.0000000000000000e+00 0.0000000000000000e+00 0.0000000000000000e+00  0.0000000000000000e+00 0.0000000000000000e+00 0.0000000000000000e+00  0.0000000000000000e+00 0.0000000000000000e+00 0.0000000000000000e+00  0.0000000000000000e+00 0.0000000000000000e+00 0.0000000000000000e+00  0.0000000000000000e+00 0.0000000000000000e+00 0.0000000000000000e+00  0.0000000000000000e+00 0.0000000000000000e+00 0.0000000000000000e+00  0.0000000000000000e+00 0.0000000000000000e+00 0.0000000000000000e+00  0.0000000000000000e+00 0.0000000000000000e+00 0.0000000000000000e+00  0.0000000000000000e+00 0.0000000000000000e+00 0.0000000000000000e+00  0.0000000000000000e+00 0.0000000000000000e+00 0.0000000000000000e+00  0.0000000000000000e+00 0.0000000000000000e+00 0.0000000000000000e+00  0.0000000000000000e+00 0.0000000000000000e+00 0.0000000000000000e+00  0.0000000000000000e+00 0.0000000000000000e+00 0.0000000000000000e+00  0.0000000000000000e+00 0.0000000000000000e+00 0.0000000000000000e+00  0.0000000000000000e+00 0.0000000000000000e+00 0.0000000000000000e+00  0.0000000000000000e+00 0.0000000000000000e+00 0.0000000000000000e+00  0.0000000000000000e+00 0.0000000000000000e+00 0.0000000000000000e+00  0.0000000000000000e+00 0.0000000000000000e+00 0.0000000000000000e+00  0.0000000000000000e+00 0.0000000000000000e+00 0.0000000000000000e+00  0.0000000000000000e+00 0.0000000000000000e+00 0.0000000000000000e+00  0.0000000000000000e+00 0.0000000000000000e+00 0.0000000000000000e+00  0.0000000000000000e+00 0.0000000000000000e+00 0.0000000000000000e+00  0.0000000000000000e+00 0.0000000000000000e+00 0.0000000000000000e+00  0.0000000000000000e+00 0.0000000000000000e+00 0.0000000000000000e+00  0.0000000000000000e+00 0.0000000000000000e+00 0.0000000000000000e+00  0.0000000000000000e+00 0.0000000000000000e+00 0.0000000000000000e+00  0.0000000000000000e+00 0.0000000000000000e+00 0.0000000000000000e+00  0.0000000000000000e+00 0.0000000000000000e+00 0.0000000000000000e+00  0.0000000000000000e+00 0.0000000000000000e+00 0.0000000000000000e+00  0.0000000000000000e+00 0.0000000000000000e+00 0.0000000000000000e+00  0.0000000000000000e+00 0.0000000000000000e+00 0.0000000000000000e+00  0.0000000000000000e+00 0.0000000000000000e+00 0.0000000000000000e+00  0.0000000000000000e+00 0.0000000000000000e+00 0.0000000000000000e+00  0.0000000000000000e+00 0.0000000000000000e+00 0.0000000000000000e+00  0.0000000000000000e+00 0.0000000000000000e+00 0.0000000000000000e+00  0.0000000000000000e+00 0.0000000000000000e+00 0.0000000000000000e+00  0.0000000000000000e+00 0.0000000000000000e+00 0.0000000000000000e+00  0.0000000000000000e+00 0.0000000000000000e+00 0.0000000000000000e+00  0.0000000000000000e+00 0.0000000000000000e+00 0.0000000000000000e+00  0.0000000000000000e+00 0.0000000000000000e+00 0.0000000000000000e+00  0.0000000000000000e+00 0.0000000000000000e+00 0.0000000000000000e+00  0.0000000000000000e+00 0.0000000000000000e+00 0.0000000000000000e+00  0.0000000000000000e+00 0.0000000000000000e+00 0.0000000000000000e+00  0.0000000000000000e+00 0.0000000000000000e+00 0.0000000000000000e+00  0.0000000000000000e+00 0.0000000000000000e+00 0.0000000000000000e+00  0.0000000000000000e+00 0.0000000000000000e+00 0.0000000000000000e+00  0.0000000000000000e+00 0.0000000000000000e+00 0.0000000000000000e+00  0.0000000000000000e+00 0.0000000000000000e+00 0.0000000000000000e+00  0.0000000000000000e+00 0.0000000000000000e+00 0.0000000000000000e+00  0.0000000000000000e+00 0.0000000000000000e+00 0.0000000000000000e+00  0.0000000000000000e+00 0.0000000000000000e+00 0.0000000000000000e+00  0.0000000000000000e+00 0.0000000000000000e+00 0.0000000000000000e+00  0.0000000000000000e+00 0.0000000000000000e+00 0.0000000000000000e+00  0.0000000000000000e+00 0.0000000000000000e+00 0.0000000000000000e+00  1.1365026558368776e+00 -7.3049904009559359e-03 0.0000000000000000e+00  1.1114322320772583e+00 -3.7125187104410445e-01 0.0000000000000000e+00  1.9547247397950653e+00 1.2845071214273311e+00 0.0000000000000000e+00  2.2140450526354329e+00 -5.9825020230259907e-01 0.0000000000000000e+00  1.1372420369539589e+00 -9.5183032106167472e-04 0.0000000000000000e+00  1.5000002023351413e+00 0.0000000000000000e+00 0.0000000000000000e+00  1.2119693753711165e+00 -1.6432586902078584e-03 0.0000000000000000e+00  1.2029313879557175e+00 -1.5974254753506152e+00 0.0000000000000000e+00  1.5000002023351413e+00 0.0000000000000000e+00 0.0000000000000000e+00  0.0000000000000000e+00 0.0000000000000000e+00 0.0000000000000000e+00  1.1460042881736219e+00 1.5173680543197537e-04 0.0000000000000000e+00  0.0000000000000000e+00 0.0000000000000000e+00 0.0000000000000000e+00  0.0000000000000000e+00 0.0000000000000000e+00 0.0000000000000000e+00  1.3875078591580994e+00 -2.4776433308654214e-01 0.0000000000000000e+00  0.0000000000000000e+00 0.0000000000000000e+00 0.0000000000000000e+00  0.0000000000000000e+00 0.0000000000000000e+00 0.0000000000000000e+00  0.0000000000000000e+00 0.0000000000000000e+00 0.0000000000000000e+00  7.8829105364026131e-01 7.6216138231563169e-01 0.0000000000000000e+00  0.0000000000000000e+00 0.0000000000000000e+00 0.0000000000000000e+00  0.0000000000000000e+00 0.0000000000000000e+00 0.0000000000000000e+00  1.1654369060250840e+00 -7.5084614964993135e-02 0.0000000000000000e+00  0.0000000000000000e+00 0.0000000000000000e+00 0.0000000000000000e+00  0.0000000000000000e+00 0.0000000000000000e+00 0.0000000000000000e+00  0.0000000000000000e+00 0.0000000000000000e+00 0.0000000000000000e+00  0.0000000000000000e+00 0.0000000000000000e+00 0.0000000000000000e+00  0.0000000000000000e+00 0.0000000000000000e+00 0.0000000000000000e+00  0.0000000000000000e+00 0.0000000000000000e+00 0.0000000000000000e+00  0.0000000000000000e+00 0.0000000000000000e+00 0.0000000000000000e+00  1.3626239514025069e+00 -1.2603707756532643e-02 0.0000000000000000e+00  1.1589837037305886e+00 -3.5788883587385403e-03 0.0000000000000000e+00  1.1420399718027079e+00 -3.6302857015515626e-04 0.0000000000000000e+00  1.1039661128688116e+00 -1.4680287810914162e-02 0.0000000000000000e+00  9.5191957443085495e-01 -1.1630212398554354e-01 0.0000000000000000e+00  8.0692303126100162e-01 1.0794761628718677e+00 0.0000000000000000e+00  1.9474498470963175e+00 -2.6558366741142209e-01 0.0000000000000000e+00  1.1124594980420555e+00 3.6505999150939039e-01 0.0000000000000000e+00  9.7162579646770286e-01 -7.5810120668678460e-01 0.0000000000000000e+00  1.1441448105030967e+00 -5.1224385369355791e-04 0.0000000000000000e+00  8.7368340404444833e-01 -4.1072493448299991e-03 0.0000000000000000e+00  9.9009673118753372e-01 1.2983291464087927e-02 0.0000000000000000e+00  1.1276338345558476e+00 -6.2705806185565309e-04 0.0000000000000000e+00  1.1250001517513559e+00 0.0000000000000000e+00 0.0000000000000000e+00  8.9310499235609603e-02 -4.9291168084344200e-01 0.0000000000000000e+00  2.2272368910912697e+00 3.6533382833256617e-01 0.0000000000000000e+00  1.0899213346101495e+00 8.4543236589388171e-01 0.0000000000000000e+00  1.4067213122329822e+00 -2.3532649171447334e-01 0.0000000000000000e+00  1.1440773516045073e+00 -3.2124523124441605e-05 0.0000000000000000e+00  1.1611469459299288e+00 -3.4501580173791789e-03 0.0000000000000000e+00  1.3317780297213822e+00 -1.0391363657894145e-01 0.0000000000000000e+00  6.9698248259492301e-01 1.4185491501138806e-01 0.0000000000000000e+00  1.6047461244024681e+00 2.8849043630284676e-01 0.0000000000000000e+00  7.2594663777978219e-01 -1.6460489304983117e-01 0.0000000000000000e+00  1.3662462863987959e+00 2.7459654602122263e-01 0.0000000000000000e+00  1.1453897616578637e+00 -8.5739983577118187e-04 0.0000000000000000e+00  1.1260619060824588e+00 -7.8885078744664111e-04 0.0000000000000000e+00  1.1351219750757469e+00 -6.7366774636795504e-03 0.0000000000000000e+00  1.2310816539983809e+00 -7.6667881963388293e-02 0.0000000000000000e+00  0.0000000000000000e+00 0.0000000000000000e+00 0.0000000000000000e+00  1.2375192191134607e+00 -2.8831142599362952e-01 0.0000000000000000e+00  1.1250001517513559e+00 0.0000000000000000e+00 0.0000000000000000e+00  1.1462068488563626e+00 1.9273903546470105e-03 0.0000000000000000e+00  0.0000000000000000e+00 0.0000000000000000e+00 0.0000000000000000e+00  1.2721710194765314e+00 -1.9382408394803433e-04 0.0000000000000000e+00  1.0521511997218702e+00 2.2636807046108462e-01 0.0000000000000000e+00  1.4627133405571104e+00 -6.5319434504291840e-01 0.0000000000000000e+00  1.0608289141656815e+00 -3.2275708714757273e-01 0.0000000000000000e+00  0.0000000000000000e+00 0.0000000000000000e+00 0.0000000000000000e+00  1.5280640322942911e+00 -7.8239656791212553e-01 0.0000000000000000e+00  1.1250001517513559e+00 0.0000000000000000e+00 0.0000000000000000e+00  3.6377167261729948e-01 -3.5976268308552817e-01 0.0000000000000000e+00  1.1250001517513559e+00 0.0000000000000000e+00 0.0000000000000000e+00  0.0000000000000000e+00 0.0000000000000000e+00 0.0000000000000000e+00  2.0404823667628107e+00 2.4137079681079363e-01 0.0000000000000000e+00  1.1244756199036969e+00 -3.7378357050328751e-03 0.0000000000000000e+00  8.3438939856486261e-02 8.3704019956748532e-01 0.0000000000000000e+00  0.0000000000000000e+00 0.0000000000000000e+00 0.0000000000000000e+00  1.5350641595855243e+00 -2.0805415323742492e-02 0.0000000000000000e+00  1.9692712313222365e+00 -6.7448752981948534e-01 0.0000000000000000e+00  1.7564819255482866e+00 4.2233995801280561e-01 0.0000000000000000e+00  1.1989644399311368e+00 -1.2708672029997760e-02 0.0000000000000000e+00  1.1439781639325817e+00 -2.3096367056332893e-02 0.0000000000000000e+00  1.1428501517516894e+00 -1.0475536203774880e-03 0.0000000000000000e+00  1.1443081108617812e+00 3.3390413903964177e-04 0.0000000000000000e+00  1.5191734049628258e+00 7.0637520047145252e-01 0.0000000000000000e+00  1.1454383218650235e+00 -2.5299433409193700e-01 0.0000000000000000e+00  1.1487432343044128e+00 4.1061355903754512e-05 0.0000000000000000e+00  9.7916924871051625e-01 2.1902257701603195e-01 0.0000000000000000e+00  8.0835672797649383e-01 -6.7267540479497887e-02 0.0000000000000000e+00  1.4665242433810730e+00 6.6991189628470016e-01 0.0000000000000000e+00  7.5732896515998949e-01 -1.0131367731074013e-01 0.0000000000000000e+00  0.0000000000000000e+00 0.0000000000000000e+00 0.0000000000000000e+00  9.5345370520047101e-01 -8.7073210846588922e-02 0.0000000000000000e+00  0.0000000000000000e+00 0.0000000000000000e+00 0.0000000000000000e+00  0.0000000000000000e+00 0.0000000000000000e+00 0.0000000000000000e+00  0.0000000000000000e+00 0.0000000000000000e+00 0.0000000000000000e+00  0.0000000000000000e+00 0.0000000000000000e+00 0.0000000000000000e+00  0.0000000000000000e+00 0.0000000000000000e+00 0.0000000000000000e+00  0.0000000000000000e+00 0.0000000000000000e+00 0.0000000000000000e+00  0.0000000000000000e+00 0.0000000000000000e+00 0.0000000000000000e+00  0.0000000000000000e+00 0.0000000000000000e+00 0.0000000000000000e+00  1.1329631609270834e+00 -2.4501165928136816e-04 0.0000000000000000e+00  0.0000000000000000e+00 0.0000000000000000e+00 0.0000000000000000e+00  0.0000000000000000e+00 0.0000000000000000e+00 0.0000000000000000e+00  0.0000000000000000e+00 0.0000000000000000e+00 0.0000000000000000e+00  0.0000000000000000e+00 0.0000000000000000e+00 0.0000000000000000e+00  0.0000000000000000e+00 0.0000000000000000e+00 0.0000000000000000e+00  0.0000000000000000e+00 0.0000000000000000e+00 0.0000000000000000e+00  0.0000000000000000e+00 0.0000000000000000e+00 0.0000000000000000e+00  0.0000000000000000e+00 0.0000000000000000e+00 0.0000000000000000e+00  0.0000000000000000e+00 0.0000000000000000e+00 0.0000000000000000e+00  0.0000000000000000e+00 0.0000000000000000e+00 0.0000000000000000e+00  0.0000000000000000e+00 0.0000000000000000e+00 0.0000000000000000e+00  0.0000000000000000e+00 0.0000000000000000e+00 0.0000000000000000e+00  0.0000000000000000e+00 0.0000000000000000e+00 0.0000000000000000e+00  0.0000000000000000e+00 0.0000000000000000e+00 0.0000000000000000e+00  0.0000000000000000e+00 0.0000000000000000e+00 0.0000000000000000e+00  0.0000000000000000e+00 0.0000000000000000e+00 0.0000000000000000e+00  0.0000000000000000e+00 0.0000000000000000e+00 0.0000000000000000e+00  0.0000000000000000e+00 0.0000000000000000e+00 0.0000000000000000e+00  1.1779469999184671e+00 5.0852302143289895e-04 0.0000000000000000e+00  1.1456743777518916e+00 -1.8188669414549153e-03 0.0000000000000000e+00  1.5026900766570979e+00 -7.3573233275968697e-01 0.0000000000000000e+00  1.1442340387580765e+00 -1.0635909549991476e-03 0.0000000000000000e+00  1.0649990081922305e+00 -5.4575233954842851e-02 0.0000000000000000e+00  1.4772135207935853e+00 -4.1636512664896907e-01 0.0000000000000000e+00  1.2975896993049423e+00 1.0159282629548736e+00 0.0000000000000000e+00  9.0593650783225510e-01 3.1725943390206277e-02 0.0000000000000000e+00  1.3534318595580062e+00 -1.4991002514549695e-01 0.0000000000000000e+00  1.3929695760670113e+00 -1.6920129994978404e-02 0.0000000000000000e+00  1.1417014675953336e+00 -1.0297600187211666e-03 0.0000000000000000e+00  1.1591387877721526e+00 -2.4372090025469345e-03 0.0000000000000000e+00  1.1918284071329186e+00 -6.0597533200456612e-03 0.0000000000000000e+00  2.1664961161911713e+00 -2.2583939226141138e-02 0.0000000000000000e+00  1.1434960330586792e+00 1.4763054877142525e-03 0.0000000000000000e+00  1.4214417000776789e+00 -3.2672991377709415e-01 0.0000000000000000e+00  1.4042763972362868e+00 -3.2486791374772138e-02 0.0000000000000000e+00  1.9263053483860029e+00 -7.4006601851999948e-02 0.0000000000000000e+00  1.3814709716754445e+00 3.4637517285772356e-03 0.0000000000000000e+00  1.3630819148178173e+00 3.4962534033911290e-03 0.0000000000000000e+00  1.1466367530864698e+00 3.8236264864443169e-02 0.0000000000000000e+00  1.8909322200259584e+00 -1.2012201111691230e+00 0.0000000000000000e+00  1.8315739497867634e+00 -9.1272723015822832e-01 0.0000000000000000e+00  -4.9587497190342944e-01 6.4564096842532281e-01 0.0000000000000000e+00  1.1468851075343169e+00 -1.7681335206713995e-03 0.0000000000000000e+00  1.4503742119779302e+00 1.6674616692116256e-01 0.0000000000000000e+00  -2.5993391689014322e-01 1.0591964275055549e-01 0.0000000000000000e+00  8.5192685214614572e-01 -2.8171244646307053e-03 0.0000000000000000e+00  8.9415887484224210e-01 -1.2504219205112185e-03 0.0000000000000000e+00  1.0064970998120650e+00 -1.4207569064993669e-03 0.0000000000000000e+00  8.0732994309615302e-01 -6.4642813919491976e-03 0.0000000000000000e+00  6.1320761574572602e-01 -1.0396059194075125e-01 0.0000000000000000e+00  1.3625310103714345e+00 -1.0392088816908214e-01 0.0000000000000000e+00  6.0648417077102668e-02 4.4611770619745633e-01 0.0000000000000000e+00  1.0833108501077178e+00 7.7609853337411274e-03 0.0000000000000000e+00  1.0609052705805115e+00 -3.6753484450994011e-03 0.0000000000000000e+00  1.1748718634304356e+00 4.2740136452471617e-01 0.0000000000000000e+00  1.7997131366138490e+00 -4.0940117716771923e-01 0.0000000000000000e+00  1.1310366053748966e+00 -1.4509964026715231e-02 0.0000000000000000e+00  1.3240154985805983e+00 1.2312026818474209e+00 0.0000000000000000e+00  9.9439403168226159e-01 -5.6962902110345673e-02 0.0000000000000000e+00  6.2458405629672631e-01 -1.9234587255400637e-01 0.0000000000000000e+00  1.3945120094945749e+00 -7.1136068561666610e-01 0.0000000000000000e+00  9.5178103462888919e-01 6.6481231445666444e-01 0.0000000000000000e+00  1.3880567829821540e+00 3.6782074280501252e-02 0.0000000000000000e+00  1.0005896710780917e+00 -6.6314964298965643e-03 0.0000000000000000e+00  1.2780859724738530e-01 -2.4716131564031851e-01 0.0000000000000000e+00  6.2742158428189487e-01 2.5944766031185490e-01 0.0000000000000000e+00  1.0495465100988954e+00 -6.3462947839020988e-04 0.0000000000000000e+00  6.5625008852162425e-01 0.0000000000000000e+00 0.0000000000000000e+00  8.6591801355146814e-01 -3.1757847393554146e-02 0.0000000000000000e+00  9.5431579551600709e-01 -2.5046600038282067e-02 0.0000000000000000e+00  5.8710878972197733e-01 2.8402968696914079e-02 0.0000000000000000e+00  1.0259833306516877e+00 1.6742858775463788e-03 0.0000000000000000e+00  1.0784537571963013e+00 -3.6396275657322563e-04 0.0000000000000000e+00  8.7972631384378375e-01 -2.4115934409015477e-01 0.0000000000000000e+00  1.1264807378290000e+00 -4.5218125227323470e-04 0.0000000000000000e+00  1.2504831776511640e+00 2.6206869272632261e-01 0.0000000000000000e+00  1.1347807664044427e+00 -3.5804120168566453e-03 0.0000000000000000e+00  8.3218762786543232e-01 1.1081478376011787e-01 0.0000000000000000e+00  -6.2070375371191401e-02 8.8110090322892909e-02 0.0000000000000000e+00  1.0252774399852982e+00 5.1474318998788195e-05 0.0000000000000000e+00  1.2093145290447247e+00 -6.6931006224068557e-01 0.0000000000000000e+00  2.3489302975987862e+00 6.7745450359826265e-01 0.0000000000000000e+00  1.8027876474066253e+00 1.2525258759943686e-01 0.0000000000000000e+00  2.4580958648692827e-01 1.9606376058889294e-01 0.0000000000000000e+00  1.1750740066673808e+00 -7.0287023504691915e-01 0.0000000000000000e+00  1.0467106136519109e+00 3.3563400165673412e-04 0.0000000000000000e+00  -3.1094011723309661e-01 1.0446044772254900e-01 0.0000000000000000e+00  2.1183024796192518e+00 -4.9554364456867656e-01 0.0000000000000000e+00  -1.8616965811241150e-02 8.6104817849431414e-01 0.0000000000000000e+00  1.1276690641924840e+00 -3.4356359208290818e-02 0.0000000000000000e+00  1.4561592675546438e+00 -6.0253882892407004e-02 0.0000000000000000e+00  1.1438970888859663e+00 1.3993424997445892e-04 0.0000000000000000e+00  1.1493470324206712e+00 -3.3405031655512687e-03 0.0000000000000000e+00  1.2965714536555815e+00 6.2183016989385698e-01 0.0000000000000000e+00  1.0053259684095588e+00 -2.7513880036837187e-02 0.0000000000000000e+00  1.4161221397566663e+00 -3.6486270871640969e-01 0.0000000000000000e+00  1.9616725904641035e+00 -3.2913124901327095e-01 0.0000000000000000e+00  1.1482921848517378e+00 -3.9273998913392610e-04 0.0000000000000000e+00  1.2624079750276422e+00 -9.1251765615332686e-02 0.0000000000000000e+00  1.1495848938669042e+00 -1.5926756829236731e-03 0.0000000000000000e+00  1.0104527095394853e+00 1.6594991160448172e-03 0.0000000000000000e+00  1.1573911290905254e+00 -9.4443367841513300e-03 0.0000000000000000e+00  2.2087405184214939e+00 -4.9116024871087943e-01 0.0000000000000000e+00  2.0500964849370282e+00 9.7900346319622167e-01 0.0000000000000000e+00  1.0053370423496457e+00 5.0829506302482712e-03 0.0000000000000000e+00  7.5347790177453255e-01 -1.8954457900802468e-02 0.0000000000000000e+00  4.0665105887268505e-01 2.5103747466393857e-02 0.0000000000000000e+00  1.2103980724263306e+00 -1.9512256787932752e-01 0.0000000000000000e+00  1.3695115977614849e+00 -9.7071890612135045e-02 0.0000000000000000e+00  6.4293796209274301e-01 2.3674919042110815e-01 0.0000000000000000e+00  8.0236025070105033e-01 6.8831129134243996e-02 0.0000000000000000e+00  1.1787517453649670e+00 -2.8136900555467925e-02 0.0000000000000000e+00  1.0411539237188889e+00 -2.5609123605765372e-01 0.0000000000000000e+00  1.0021595224545183e+00 3.6609173888508379e-04 0.0000000000000000e+00  1.0499491975323409e+00 9.9454955240254814e-02 0.0000000000000000e+00  5.7384655940169282e-01 -6.6952125548591465e-02 0.0000000000000000e+00  3.4164076021779710e-01 1.5974345523422179e-01 0.0000000000000000e+00  9.6298148522886262e-01 2.5828315648895184e-01 0.0000000000000000e+00  8.3720748022849012e-01 -2.7466421080086692e-02 0.0000000000000000e+00  1.2255972735278138e+00 -3.9837548354924579e-01 0.0000000000000000e+00  1.0152254443467132e+00 -5.5613461856825371e-03 0.0000000000000000e+00  1.1025657520996930e+00 8.9564170550233881e-03 0.0000000000000000e+00  1.1348329550131373e+00 -1.601787491