<?xml version="1.0"?>
<VTKFile type="UnstructuredGrid"  version="0.1"  >
<UnstructuredGrid>
<Piece  NumberOfPoints="4269" NumberOfCells="8234">
<Points>
<DataArray  type="Float64"  NumberOfComponents="3"  format="ascii">0 1 0  0 0 0  7.5 0 0  7.5 1 0  1.197537668119028 0.5812868930080463 0  1.2 0.55 0  1.197537668119028 0.5187131069919538 0  1.190211303259031 0.4881966011250105 0  1.178201304837674 0.4592019000520907 0  1.161803398874989 0.4324429495415054 0  1.141421356237309 0.4085786437626905 0  1.117557050458495 0.3881966011250105 0  1.090798099947909 0.3717986951623264 0  1.06180339887499 0.3597886967409693 0  1.031286893008046 0.3524623318809725 0  1 0.35 0  0.9687131069919538 0.3524623318809725 0  0.9381966011250105 0.3597886967409694 0  0.9092019000520906 0.3717986951623264 0  0.8824429495415054 0.3881966011250105 0  0.8585786437626904 0.4085786437626905 0  0.8381966011250105 0.4324429495415054 0  0.8217986951623264 0.4592019000520907 0  0.8097886967409692 0.4881966011250107 0  0.8024623318809725 0.5187131069919539 0  0.8 0.55 0  0.8024623318809725 0.5812868930080463 0  0.8097886967409693 0.6118033988749896 0  0.8217986951623264 0.6407980999479095 0  0.8381966011250105 0.6675570504584947 0  0.8585786437626906 0.6914213562373096 0  0.8824429495415054 0.7118033988749896 0  0.9092019000520907 0.7282013048376736 0  0.9381966011250106 0.7402113032590307 0  0.9687131069919539 0.7475376681190276 0  1 0.75 0  1.031286893008046 0.7475376681190276 0  1.06180339887499 0.7402113032590307 0  1.090798099947909 0.7282013048376736 0  1.117557050458495 0.7118033988749896 0  1.141421356237309 0.6914213562373095 0  1.161803398874989 0.6675570504584947 0  1.178201304837674 0.6407980999479094 0  1.190211303259031 0.6118033988749896 0  3.75 0 0  3.75 1 0  1.875 0 0  1.875 1 0  0.9375 0 0  0.9375 1 0  1.40625 1 0  5.625 1 0  5.625 0 0  2.8125 1 0  2.8125 0 0  4.6875 0 0  4.6875 1 0  6.5625 0 0  6.5625 1 0  5.15625 0.5 0  4.21875 0.5 0  2.34375 0.5 0  3.28125 0.5 0  6.09375 0.5 0  7.5 0.5 0  6.897916666666666 0.5 0  1.842708333333333 0.5 0  0 0.5 0  0.46875 0 0  5.625 0.5302734375 0  7.03125 0 0  6.09375 1 0  2.8125 0.4697265625 0  3.28125 0 0  2.34375 1 0  2.34375 0 0  3.75 0.4697265625 0  4.21875 0 0  4.21875 1 0  4.6875 0.5302734375 0  3.28125 1 0  5.15625 0 0  6.09375 0 0  5.15625 1 0  0.46875 1 0  1.40625 0 0  7.03125 1 0  0.3954638734376499 0.5975780249976004 0  6.495833333333334 0.4072265624999998 0  5.859375 0.25 0  4.905729166666666 0.26513671875 0  4.453125 0.25 0  3.531770833333333 0.73486328125 0  3.968229166666667 0.73486328125 0  2.594270833333333 0.73486328125 0  3.030729166666667 0.73486328125 0  6.328125 0.75 0  7.198958333333334 0.3125000000000002 0  7.198958333333334 0.6874999999999998 0  5.390625 0.25 0  0 0.25 0  2.109375 0.75 0  2.109375 0.25 0  1.51921323205749 0.3418883887525936 0  1.522346610178253 0.6811769608297746 0  5.375456746419271 0.75 0  4.921875 0.76513671875 0  4.437956746419271 0.75 0  3.984375 0.23486328125 0  3.500456746419271 0.25 0  2.578125 0.23486328125 0  3.046875 0.23486328125 0  5.874543253580729 0.75 0  6.642123189445656 0.6909095493086836 0  6.746354166666666 0.2391688368055553 0  0.3197109619185111 0.2850049285972083 0  6.328125 0 0  0.6313375889370429 0.2351325552547357 0  0 0.75 0  6.252283381534729 0.2693808819694041 0  0.234375 1 0  6.948437500000001 0.7543055555555555 0  0.5934018769555939 0.7694151657947577 0  1.858854166666667 0.75 0  1.858854166666667 0.25 0  1.640625 0 0  2.093229166666667 0.5 0  7.5 0.25 0  3.282227579752604 0.75 0  7.5 0.75 0  1.171875 0 0  1.303539853147731 0.2235426933121065 0  5.148177083333333 0.2575683593749998 0  2.351822916666667 0.742431640625 0  1.640625 1 0  4.202380413457425 0.7645435094236485 0  3.047822985053062 0.4701848030090332 0  2.577177014946938 0.4701848030090332 0  4.672792740482199 0.76513671875 0  4.922822985053062 0.5298151969909668 0  5.390593497949761 0.5156244924311331 0  5.610292740482199 0.76513671875 0  3.516602579752604 0.5 0  4.45496853898097 0.4865915990446593 0  5.85753146101903 0.4865915990446593 0  3.749511210123698 0.23486328125 0  3.983397420247396 0.4999999999999999 0  2.343497975411212 0.2346270081980111 0  4.219002024588788 0.2346270081980111 0  0.703125 0 0  2.8125 0.2343755075688669 0  3.046875 0 0  2.578125 0 0  3.515625 0 0  3.984375 0 0  4.453125 1 0  5.390625 1 0  2.109375 0 0  2.109375 1 0  5.625 0.2921402030705575 0  5.390625 0 0  7.265625 0 0  6.796875 0 0  6.328125 1 0  3.046875 1 0  2.578125 1 0  3.984375 1 0  3.515625 1 0  4.453125 0 0  4.921875 0 0  5.859375 0 0  0.703125 1 0  1.171875 1 0  7.265625 1 0  4.921875 1 0  5.859375 1 0  0.234375 0 0  6.796875 1 0  6.980310975276531 0.2285890127127066 0  5.149170481934885 0.772689292163473 0  3.274170481934884 0.2273107078365268 0  6.101334126790364 0.7722468376159667 0  4.678005340872584 0.3000799877067239 0  2.8125 0.6921051326382495 0  3.75 0.6921051326382495 0  0.3515624999999999 0.8134571721668546 0  0.4990405774417521 0.4070099317153735 0  0.1789273931360182 0.625 0  6.31239060814315 0.5298877111157968 0  6.456979773992304 0.1917956348713352 0  6.699870808919271 0.4406293402777773 0  1.337539480965883 0.7944303676599538 0  6.058675797563041 0.2019812164653516 0  0.8203125 0.1643029084422534 0  0.1480856513011711 0.375 0  1.090769294689562 0.1719186776982972 0  7.291088163206459 0.5 0  7.094502414936563 0.5197902199074071 0  0.6046212059042245 0.5730066483871106 0  1.707231580809486 0.6342709161352207 0  1.685961352504593 0.8193269193390785 0  1.374721602852827 0.4600373025865813 0  6.486415510043844 0.5916440776477192 0  1.5234375 0.1508863828685116 0  1.707925830421689 0.3657739208189008 0  0.1674513225045584 0.8278776664019765 0  7.138268756771176 0.1438183366439137 0  7.1484375 0.8616388888888887 0  7.328562530764119 0.819498462930605 0  4.101073710123698 0.3678637200736647 0  1.693878467219965 0.1911955120941053 0  1.577566745468488 0.5110082404081502 0  6.6796875 0.8653871806883484 0  6.498039504430512 0.825568433346395 0  0.7562556668576472 0.8333197949571929 0  4.101045914668806 0.6255195807449272 0  5.030745188395182 0.382829047309028 0  2.476364945868651 0.6095868094762166 0  2.729359843907322 0.8460525663191247 0  2.9296875 0.8740763101564099 0  3.163518307559356 0.6254622797994247 0  3.666859843907322 0.8460525663191247 0  3.8671875 0.8740763101564099 0  4.8046875 0.12592368984359 0  3.14936031382311 0.8606990583876851 0  2.4609375 0.8747622921397776 0  5.023140791101972 0.1392266772452574 0  0 0.125 0  0.1759922923594607 0.1727589856739889 0  4.5703125 0.125 0  7.327755777818006 0.1766156770456191 0  5.5078125 0.125 0  5.719712725029036 0.1460701015352787 0  4.327848962028002 0.3674169956512513 0  5.982681121544351 0.3692637923021713 0  3.398926289876302 0.6245417594909667 0  5.281756792511996 0.3827993367299961 0  2.226822645963271 0.6252438868405666 0  2.234390064317166 0.8676616584526566 0  5.2734375 0.125 0  1.96796875 0.382568359375 0  2.234651037971999 0.3674169956512511 0  1.984114583333333 0.132568359375 0  1.9921875 0.875 0  1.984114583333333 0.632568359375 0  5.748733794462357 0.8678269127183313 0  3.3984375 0.875456329184688 0  1.512925924995415 0.8582958012121853 0  1.359299372802969 0.6275861864990343 0  4.810521420483513 0.4041767793635395 0  0.2996213306116602 0.455339710363317 0  5.999933717403708 0.6388425470751088 0  5.250033449003657 0.6388713364551682 0  3.631676045992918 0.3525406652400928 0  4.3359375 0.8816499670325881 0  4.343577437052484 0.6116511299909198 0  3.375033449003656 0.3611286635448316 0  5.763152151652243 0.6249404690537395 0  4.549347848347757 0.6249404690537396 0  5.5004588702411 0.6403667365776566 0  5.976118394847484 0.8816230218343086 0  5.054722486865804 0.6338007028640954 0  3.164542163493752 0.3520519332736524 0  2.445407482032355 0.3672168403687257 0  4.8046875 0.882568359375 0  4.1015625 0.117431640625 0  2.4609375 0.117431640625 0  2.695556894938151 0.3520510350344335 0  2.929443105061849 0.3520510350344335 0  3.881979231817319 0.3670559016511187 0  3.8671875 0.117431640625 0  4.805389247695744 0.6470047893641744 0  3.399370721942191 0.1184066543556767 0  5.274370721942192 0.881593345644323 0  3.618253274934649 0.1316869186284249 0  2.6953125 0.1171877537844335 0  2.9296875 0.1171877537844335 0  2.21873344389451 0.125 0  4.3359375 0.1171877625080073 0  0.6659898565672709 0.3986593551313873 0  7.363359022954956 0.3481046411219251 0  7.363359022954956 0.6518953588780749 0  5.487719392831826 0.3828237631077121 0  2.695054578344725 0.5809158475691247 0  2.944553877887707 0.5964065668438148 0  0.3515625 0.1201898858097106 0  5.5078125 1 0  4.5703125 1 0  5.031746201297604 0.882568359375 0  3.1640625 0 0  6.2109375 1 0  6.186845385763124 0.6336356480571081 0  4.1015625 1 0  6.810399074069772 0.6495574751396682 0  0.4740615253480797 0.2509287743856873 0  7.052064303830151 0.3684417917792242 0  6.195177069665382 0.1216488332168849 0  5.72300154718324 0.4112068202852788 0  3.879157465495092 0.6111892850691246 0  3.645760045247695 0.5809158475691247 0  6.868257400485771 0.3427840810237202 0  6.612030892260864 0.1521752713064389 0  6.615666885941117 0.3151079644097221 0  4.04296875 0.8633718902669071 0  1.183031453639096 0.8486801864185936 0  6.9140625 0 0  6.859079526500421 0.1398292786950638 0  6.808232443325651 0.7957411753922057 0  6.9140625 1 0  4.544955211100143 0.3675874343205077 0  1.0546875 1 0  6.122060236165557 0.3316791557072867 0  0.5859375 0 0  5.9765625 0 0  5.44921875 0.870984788733638 0  4.51171875 0.870984788733638 0  0.7608354256382215 0.2931261274224557 0  6.386875332239937 0.3156583003094978 0  6.985654756850997 0.6147408423643147 0  6.223797257919172 0.8535621912121121 0  5.936822413218736 0.1338376546337823 0  6.23933008800134 0.4095573603773768 0  0.5414022462152697 0.1305482677949959 0  6.331360438104348 0.1370086318183389 0  0.956404929269873 0.1374266563647954 0  1.2890625 1 0  0.691305981127761 0.6764829884281737 0  3.531251607241209 0.8678916320952239 0  2.59787442813022 
[...]
<PointData  Vectors="f_71627"> 
<DataArray  type="Float64"  Name="f_71627"  NumberOfComponents="3" format="ascii">0.0000000000000000e+00 0.0000000000000000e+00 0.0000000000000000e+00  0.0000000000000000e+00 0.0000000000000000e+00 0.0000000000000000e+00  0.0000000000000000e+00 0.0000000000000000e+00 0.0000000000000000e+00  0.0000000000000000e+00 0.0000000000000000e+00 0.0000000000000000e+00  0.0000000000000000e+00 0.0000000000000000e+00 0.0000000000000000e+00  0.0000000000000000e+00 0.0000000000000000e+00 0.0000000000000000e+00  0.0000000000000000e+00 0.0000000000000000e+00 0.0000000000000000e+00  0.0000000000000000e+00 0.0000000000000000e+00 0.0000000000000000e+00  0.0000000000000000e+00 0.0000000000000000e+00 0.0000000000000000e+00  0.0000000000000000e+00 0.0000000000000000e+00 0.0000000000000000e+00  0.0000000000000000e+00 0.0000000000000000e+00 0.0000000000000000e+00  0.0000000000000000e+00 0.0000000000000000e+00 0.0000000000000000e+00  0.0000000000000000e+00 0.0000000000000000e+00 0.0000000000000000e+00  0.0000000000000000e+00 0.0000000000000000e+00 0.0000000000000000e+00  0.0000000000000000e+00 0.0000000000000000e+00 0.0000000000000000e+00  0.0000000000000000e+00 0.0000000000000000e+00 0.0000000000000000e+00  0.0000000000000000e+00 0.0000000000000000e+00 0.0000000000000000e+00  0.0000000000000000e+00 0.0000000000000000e+00 0.0000000000000000e+00  0.0000000000000000e+00 0.0000000000000000e+00 0.0000000000000000e+00  0.0000000000000000e+00 0.0000000000000000e+00 0.0000000000000000e+00  0.0000000000000000e+00 0.0000000000000000e+00 0.0000000000000000e+00  0.0000000000000000e+00 0.0000000000000000e+00 0.0000000000000000e+00  0.0000000000000000e+00 0.0000000000000000e+00 0.0000000000000000e+00  0.0000000000000000e+00 0.0000000000000000e+00 0.0000000000000000e+00  0.0000000000000000e+00 0.0000000000000000e+00 0.0000000000000000e+00  0.0000000000000000e+00 0.0000000000000000e+00 0.0000000000000000e+00  0.0000000000000000e+00 0.0000000000000000e+00 0.0000000000000000e+00  0.0000000000000000e+00 0.0000000000000000e+00 0.0000000000000000e+00  0.0000000000000000e+00 0.0000000000000000e+00 0.0000000000000000e+00  0.0000000000000000e+00 0.0000000000000000e+00 0.0000000000000000e+00  0.0000000000000000e+00 0.0000000000000000e+00 0.0000000000000000e+00  0.0000000000000000e+00 0.0000000000000000e+00 0.0000000000000000e+00  0.0000000000000000e+00 0.0000000000000000e+00 0.0000000000000000e+00  0.0000000000000000e+00 0.0000000000000000e+00 0.0000000000000000e+00  0.0000000000000000e+00 0.0000000000000000e+00 0.0000000000000000e+00  0.0000000000000000e+00 0.0000000000000000e+00 0.0000000000000000e+00  0.0000000000000000e+00 0.0000000000000000e+00 0.0000000000000000e+00  0.0000000000000000e+00 0.0000000000000000e+00 0.0000000000000000e+00  0.0000000000000000e+00 0.0000000000000000e+00 0.0000000000000000e+00  0.0000000000000000e+00 0.0000000000000000e+00 0.0000000000000000e+00  0.0000000000000000e+00 0.0000000000000000e+00 0.0000000000000000e+00  0.0000000000000000e+00 0.0000000000000000e+00 0.0000000000000000e+00  0.0000000000000000e+00 0.0000000000000000e+00 0.0000000000000000e+00  0.0000000000000000e+00 0.0000000000000000e+00 0.0000000000000000e+00  0.0000000000000000e+00 0.0000000000000000e+00 0.0000000000000000e+00  0.0000000000000000e+00 0.0000000000000000e+00 0.0000000000000000e+00  0.0000000000000000e+00 0.0000000000000000e+00 0.0000000000000000e+00  0.0000000000000000e+00 0.0000000000000000e+00 0.0000000000000000e+00  0.0000000000000000e+00 0.0000000000000000e+00 0.0000000000000000e+00  0.0000000000000000e+00 0.0000000000000000e+00 0.0000000000000000e+00  0.0000000000000000e+00 0.0000000000000000e+00 0.0000000000000000e+00  0.0000000000000000e+00 0.0000000000000000e+00 0.0000000000000000e+00  0.0000000000000000e+00 0.0000000000000000e+00 0.0000000000000000e+00  0.0000000000000000e+00 0.0000000000000000e+00 0.0000000000000000e+00  0.0000000000000000e+00 0.0000000000000000e+00 0.0000000000000000e+00  0.0000000000000000e+00 0.0000000000000000e+00 0.0000000000000000e+00  0.0000000000000000e+00 0.0000000000000000e+00 0.0000000000000000e+00  0.0000000000000000e+00 0.0000000000000000e+00 0.0000000000000000e+00  0.0000000000000000e+00 0.0000000000000000e+00 0.0000000000000000e+00  1.5940017052492488e+00 -1.1033975179837621e+00 0.0000000000000000e+00  1.9353653963310118e+00 -4.5073711345931938e-01 0.0000000000000000e+00  1.7994021593006440e+00 1.5671328630219723e+00 0.0000000000000000e+00  2.1053422998241835e+00 2.6423380496393917e-01 0.0000000000000000e+00  1.4565796577102406e+00 -4.0679583317345308e-01 0.0000000000000000e+00  1.5000002143903357e+00 0.0000000000000000e+00 0.0000000000000000e+00  1.6018272271415332e+00 8.9687756430885401e-01 0.0000000000000000e+00  1.7845839560386771e+00 -1.6830874877986119e+00 0.0000000000000000e+00  1.5000002143903357e+00 0.0000000000000000e+00 0.0000000000000000e+00  0.0000000000000000e+00 0.0000000000000000e+00 0.0000000000000000e+00  1.7252039322522199e+00 7.3400933448522421e-01 0.0000000000000000e+00  0.0000000000000000e+00 0.0000000000000000e+00 0.0000000000000000e+00  0.0000000000000000e+00 0.0000000000000000e+00 0.0000000000000000e+00  1.6356685569445277e+00 -5.8075798937428336e-01 0.0000000000000000e+00  0.0000000000000000e+00 0.0000000000000000e+00 0.0000000000000000e+00  0.0000000000000000e+00 0.0000000000000000e+00 0.0000000000000000e+00  0.0000000000000000e+00 0.0000000000000000e+00 0.0000000000000000e+00  1.6093030660814553e+00 3.8032189017866802e-01 0.0000000000000000e+00  0.0000000000000000e+00 0.0000000000000000e+00 0.0000000000000000e+00  0.0000000000000000e+00 0.0000000000000000e+00 0.0000000000000000e+00  1.4509355458784208e+00 7.8246728027984080e-01 0.0000000000000000e+00  0.0000000000000000e+00 0.0000000000000000e+00 0.0000000000000000e+00  0.0000000000000000e+00 0.0000000000000000e+00 0.0000000000000000e+00  0.0000000000000000e+00 0.0000000000000000e+00 0.0000000000000000e+00  0.0000000000000000e+00 0.0000000000000000e+00 0.0000000000000000e+00  0.0000000000000000e+00 0.0000000000000000e+00 0.0000000000000000e+00  0.0000000000000000e+00 0.0000000000000000e+00 0.0000000000000000e+00  0.0000000000000000e+00 0.0000000000000000e+00 0.0000000000000000e+00  1.3590861472942182e+00 -4.3887308424676544e-02 0.0000000000000000e+00  1.7410513029428301e+00 -5.1104429430948861e-01 0.0000000000000000e+00  8.4045487249514028e-01 4.3579442918696581e-01 0.0000000000000000e+00  7.7484654139814646e-01 3.5965398736431745e-03 0.0000000000000000e+00  1.6143576861590991e+00 4.8560857035322197e-01 0.0000000000000000e+00  4.4787352607706848e-01 9.9144088912693107e-01 0.0000000000000000e+00  6.4078931981530285e-01 -9.9253231977917700e-01 0.0000000000000000e+00  1.1584561361591035e+00 9.3580164539323565e-02 0.0000000000000000e+00  4.3852429933418186e-01 -6.8227318499023060e-01 0.0000000000000000e+00  8.9950786209191402e-01 -4.9198779511696744e-01 0.0000000000000000e+00  1.1337109626276720e+00 1.8659376674869974e-01 0.0000000000000000e+00  1.1912860449282849e+00 4.6283708388402162e-01 0.0000000000000000e+00  1.5863315409955308e+00 -2.6522763664919136e-01 0.0000000000000000e+00  1.1250001607927518e+00 0.0000000000000000e+00 0.0000000000000000e+00  -2.5581656323046525e-01 -2.2373805015396619e-01 0.0000000000000000e+00  1.6904890035369660e+00 -1.5678113922636329e-02 0.0000000000000000e+00  1.1995917133095984e+00 9.1615329475228824e-01 0.0000000000000000e+00  1.4216437946926943e+00 -1.8506888368500790e-01 0.0000000000000000e+00  5.9362197654757864e-01 -5.7553892987078081e-01 0.0000000000000000e+00  1.4230683335251633e+00 -5.2589154199967431e-02 0.0000000000000000e+00  3.7611992884186374e-01 5.0167807042127455e-01 0.0000000000000000e+00  1.0008147353259840e+00 -7.4389513019368425e-01 0.0000000000000000e+00  1.3506383718264179e+00 6.9883135865126045e-01 0.0000000000000000e+00  1.1972770610394230e+00 4.3567497751459261e-01 0.0000000000000000e+00  1.4924401115673367e+00 -5.1552112847722675e-01 0.0000000000000000e+00  1.1614528685272580e+00 6.3636603569395511e-01 0.0000000000000000e+00  7.3830024942289441e-01 -4.5407491343569535e-02 0.0000000000000000e+00  1.7289984205749518e+00 2.6591768997681425e-01 0.0000000000000000e+00  1.2391571649904085e+00 -9.8257454009211570e-02 0.0000000000000000e+00  0.0000000000000000e+00 0.0000000000000000e+00 0.0000000000000000e+00  1.2765492065616382e+00 -3.0969229511184543e-01 0.0000000000000000e+00  1.1250001607927518e+00 0.0000000000000000e+00 0.0000000000000000e+00  1.0992008191160918e+00 -4.9962819209906245e-01 0.0000000000000000e+00  0.0000000000000000e+00 0.0000000000000000e+00 0.0000000000000000e+00  6.5758487640063590e-01 9.7392509579558162e-01 0.0000000000000000e+00  1.0164502245370224e+00 1.9555740965375082e-01 0.0000000000000000e+00  7.8924851857904821e-01 -3.2103103498566971e-01 0.0000000000000000e+00  9.0455892832796003e-01 -6.1999625173647710e-01 0.0000000000000000e+00  0.0000000000000000e+00 0.0000000000000000e+00 0.0000000000000000e+00  1.9160770927671700e+00 -7.9925782928922240e-01 0.0000000000000000e+00  1.1250001607927518e+00 0.0000000000000000e+00 0.0000000000000000e+00  -2.2611261349403336e-01 2.7122537183256784e-01 0.0000000000000000e+00  1.1250001607927518e+00 0.0000000000000000e+00 0.0000000000000000e+00  0.0000000000000000e+00 0.0000000000000000e+00 0.0000000000000000e+00  1.9502775770613645e+00 4.1588193155336733e-01 0.0000000000000000e+00  9.8761072185483290e-01 -6.9680701572350656e-01 0.0000000000000000e+00  2.6831525210189539e-01 8.6917920801560777e-01 0.0000000000000000e+00  0.0000000000000000e+00 0.0000000000000000e+00 0.0000000000000000e+00  3.6679827081772992e-01 -2.8950680489105762e-01 0.0000000000000000e+00  2.0343841913488023e+00 -9.9231953854344301e-01 0.0000000000000000e+00  1.6232313244245555e+00 2.1779931725319021e-01 0.0000000000000000e+00  1.0615366170835405e+00 4.8721732249446248e-01 0.0000000000000000e+00  1.7472670300607465e+00 1.3937343988368611e-02 0.0000000000000000e+00  1.5358376530943449e+00 -6.6664719913350401e-01 0.0000000000000000e+00  4.9308732473202765e-01 5.0946965892464391e-01 0.0000000000000000e+00  1.7835691307492985e+00 1.1648553854985111e+00 0.0000000000000000e+00  1.8359511552911369e+00 1.0695419537712365e+00 0.0000000000000000e+00  1.5521160716165465e+00 9.1201671166041587e-01 0.0000000000000000e+00  7.0275578241528847e-01 1.6954643246468712e-01 0.0000000000000000e+00  1.5845522873696274e+00 -1.4734660897311675e+00 0.0000000000000000e+00  1.4437437886443989e+00 5.6940006992326764e-01 0.0000000000000000e+00  1.6721066339927924e+00 -1.1583650918670277e-01 0.0000000000000000e+00  0.0000000000000000e+00 0.0000000000000000e+00 0.0000000000000000e+00  1.5894109559321370e+00 -3.5828359392395887e-01 0.0000000000000000e+00  0.0000000000000000e+00 0.0000000000000000e+00 0.0000000000000000e+00  0.0000000000000000e+00 0.0000000000000000e+00 0.0000000000000000e+00  0.0000000000000000e+00 0.0000000000000000e+00 0.0000000000000000e+00  0.0000000000000000e+00 0.0000000000000000e+00 0.0000000000000000e+00  0.0000000000000000e+00 0.0000000000000000e+00 0.0000000000000000e+00  0.0000000000000000e+00 0.0000000000000000e+00 0.0000000000000000e+00  0.0000000000000000e+00 0.0000000000000000e+00 0.0000000000000000e+00  0.0000000000000000e+00 0.0000000000000000e+00 0.0000000000000000e+00  1.6640529452630206e+00 7.0193200531493616e-01 0.0000000000000000e+00  0.0000000000000000e+00 0.0000000000000000e+00 0.0000000000000000e+00  0.0000000000000000e+00 0.0000000000000000e+00 0.0000000000000000e+00  0.0000000000000000e+00 0.0000000000000000e+00 0.0000000000000000e+00  0.0000000000000000e+00 0.0000000000000000e+00 0.0000000000000000e+00  0.0000000000000000e+00 0.0000000000000000e+00 0.0000000000000000e+00  0.0000000000000000e+00 0.0000000000000000e+00 0.0000000000000000e+00  0.0000000000000000e+00 0.0000000000000000e+00 0.0000000000000000e+00  0.0000000000000000e+00 0.0000000000000000e+00 0.0000000000000000e+00  0.0000000000000000e+00 0.0000000000000000e+00 0.0000000000000000e+00  0.0000000000000000e+00 0.0000000000000000e+00 0.0000000000000000e+00  0.0000000000000000e+00 0.0000000000000000e+00 0.0000000000000000e+00  0.0000000000000000e+00 0.0000000000000000e+00 0.0000000000000000e+00  0.0000000000000000e+00 0.0000000000000000e+00 0.0000000000000000e+00  0.0000000000000000e+00 0.0000000000000000e+00 0.0000000000000000e+00  0.0000000000000000e+00 0.0000000000000000e+00 0.0000000000000000e+00  0.0000000000000000e+00 0.0000000000000000e+00 0.0000000000000000e+00  0.0000000000000000e+00 0.0000000000000000e+00 0.0000000000000000e+00  0.0000000000000000e+00 0.0000000000000000e+00 0.0000000000000000e+00  1.2277517241175850e+00 4.4555466560493340e-01 0.0000000000000000e+00  1.0445022374400739e+00 -4.7635651846647981e-01 0.0000000000000000e+00  1.6198094153947002e+00 6.7409030604495226e-02 0.0000000000000000e+00  1.3550365409347860e+00 -1.9946082380773289e-01 0.0000000000000000e+00  1.2013658995064043e+00 6.9484593783067594e-01 0.0000000000000000e+00  1.1479360458205801e+00 -5.7910154973513861e-01 0.0000000000000000e+00  9.3974628576222774e-01 1.0914745454024484e-01 0.0000000000000000e+00  8.9083102551718352e-01 1.3792582025429859e-02 0.0000000000000000e+00  1.3662144747045388e+00 -1.8695692780313744e-01 0.0000000000000000e+00  1.3926497200315475e+00 -2.9650820698835744e-02 0.0000000000000000e+00  1.4475635763480119e+00 -7.8801256236802608e-01 0.0000000000000000e+00  1.3907574319766847e+00 -3.3136002197384562e-01 0.0000000000000000e+00  1.9064245908992163e+00 1.9830885323361483e-01 0.0000000000000000e+00  2.0679773603942708e+00 -2.0663888813476955e-01 0.0000000000000000e+00  7.0278081155346084e-01 -1.3546804720683153e-01 0.0000000000000000e+00  1.4827788157785780e+00 -3.2699726508427701e-01 0.0000000000000000e+00  1.4049224647279859e+00 -4.1296557112758342e-02 0.0000000000000000e+00  1.9573428881423589e+00 7.2073008762723947e-03 0.0000000000000000e+00  1.3533603931044169e+00 3.9422312131318532e-01 0.0000000000000000e+00  1.4481488055268121e+00 1.0005632855566786e+00 0.0000000000000000e+00  1.1395211763899573e+00 -9.2960212734577649e-03 0.0000000000000000e+00  2.2010772160757264e+00 -1.3506870719891557e+00 0.0000000000000000e+00  1.2471169612577324e+00 -6.3044869248625435e-01 0.0000000000000000e+00  6.0166960410532333e-01 6.3530476371248612e-01 0.0000000000000000e+00  1.2902337156452628e+00 -7.8644125926356345e-01 0.0000000000000000e+00  1.1935746704651260e+00 2.0934611406119519e-01 0.0000000000000000e+00  3.8025677227150961e-01 2.5810580610585027e-01 0.0000000000000000e+00  8.4824725424336367e-01 -1.1324397368437550e-02 0.0000000000000000e+00  7.8982652895562566e-01 2.2749347604964495e-01 0.0000000000000000e+00  8.6899751927167090e-01 3.4142239091370502e-01 0.0000000000000000e+00  1.1258510351275286e+00 2.4660716597875712e-01 0.0000000000000000e+00  1.7625404199649164e+00 -8.4669774505925877e-01 0.0000000000000000e+00  9.7077481907554619e-01 -1.1547876477009614e-01 0.0000000000000000e+00  1.6013532253699142e-01 1.1091521742843220e+00 0.0000000000000000e+00  -7.7341335333038511e-02 3.0260010427815821e-02 0.0000000000000000e+00  1.2370257899074071e-01 -4.4412932761453627e-01 0.0000000000000000e+00  1.1093061944389717e+00 3.9868897751768767e-01 0.0000000000000000e+00  1.1666263859800667e+00 -1.1458690124756010e+00 0.0000000000000000e+00  1.3895798609095502e+00 -5.6907216658005833e-01 0.0000000000000000e+00  1.2618200671803010e+00 9.8031368584037826e-01 0.0000000000000000e+00  7.3420173067582128e-01 -7.3154414157872744e-02 0.0000000000000000e+00  1.8610848528436927e-01 -3.1827335776122867e-01 0.0000000000000000e+00  9.0317536673982302e-01 -6.7984911929520331e-01 0.0000000000000000e+00  9.0142283579250759e-01 1.7256194012591522e-01 0.0000000000000000e+00  6.6757164357514276e-01 -2.0766945343038692e-01 0.0000000000000000e+00  2.0688072819436307e-01 1.1968856585893758e-01 0.0000000000000000e+00  -1.9408230864074758e-01 -1.5781607505581574e-01 0.0000000000000000e+00  8.1812336834171673e-01 1.2574785391729185e-01 0.0000000000000000e+00  2.0402749326584871e-01 -2.4039764701979452e-01 0.0000000000000000e+00  6.5625009379577182e-01 0.0000000000000000e+00 0.0000000000000000e+00  8.6842683217694738e-01 -3.9400168313521354e-02 0.0000000000000000e+00  6.6875846198772670e-01 2.5186254658280649e-01 0.0000000000000000e+00  7.4704338853624463e-01 3.5289726898610374e-01 0.0000000000000000e+00  1.3919295401676788e+00 1.5441223934628587e-01 0.0000000000000000e+00  8.6065557654870950e-01 2.5758260983400871e-01 0.0000000000000000e+00  1.9946493946216111e+00 1.9185435670166801e-01 0.0000000000000000e+00  1.1871793172830631e+00 3.1732617844027602e-02 0.0000000000000000e+00  1.0505872122126849e+00 1.1395195928622091e+00 0.0000000000000000e+00  1.5488072681691987e+00 -1.0782291313782681e+00 0.0000000000000000e+00  6.6888757142426425e-01 4.5152807201668760e-01 0.0000000000000000e+00  2.8997775237196315e-02 2.1981632254704547e-01 0.0000000000000000e+00  8.8218473725049196e-01 -2.8703340229523505e-01 0.0000000000000000e+00  1.5406964567733437e+00 -9.0100200422268539e-01 0.0000000000000000e+00  2.1617974461625602e+00 3.5415101857358977e-01 0.0000000000000000e+00  1.6467201623580017e+00 -5.6486291469126371e-02 0.0000000000000000e+00  1.1382840100747124e-01 -7.8557027210705677e-02 0.0000000000000000e+00  1.0727413279759763e+00 -8.4901507920909636e-01 0.0000000000000000e+00  5.0904257674249387e-01 4.5197051659894216e-01 0.0000000000000000e+00  -6.0701968969999708e-02 5.2931282585669315e-01 0.0000000000000000e+00  1.8144815415316411e+00 -4.8163318147086270e-01 0.0000000000000000e+00  -6.3211086982936404e-01 5.1754831686800351e-01 0.0000000000000000e+00  1.5280831701077953e+00 5.7453445923853019e-01 0.0000000000000000e+00  1.4591709571629257e+00 -8.4216663839496761e-02 0.0000000000000000e+00  1.5094695395919193e+00 9.1243452415165321e-02 0.0000000000000000e+00  1.2166276454436515e+00 -1.2000639651716971e+00 0.0000000000000000e+00  1.4871489697786622e+00 9.4863534676664352e-01 0.0000000000000000e+00  -1.2176132955437351e-01 9.9640816170138757e-02 0.0000000000000000e+00  1.3182681569872405e+00 6.5679999286274837e-01 0.0000000000000000e+00  1.8179424485983720e+00 5.9023568513630342e-01 0.0000000000000000e+00  1.3019161453724450e+00 1.2589827091785819e+00 0.0000000000000000e+00  1.2165549523558399e+00 9.0562962319784912e-01 0.0000000000000000e+00  9.6532126398328255e-01 2.1783719072800517e-01 0.0000000000000000e+00  1.1869140669628584e+00 -9.1642575890094821e-03 0.0000000000000000e+00  1.6158902349655944e+00 -4.8679897691281870e-01 0.0000000000000000e+00  2.0427291044154061e+00 -4.0230881724421669e-01 0.0000000000000000e+00  1.6629627023074736e+00 9.7774270919852679e-01 0.0000000000000000e+00  9.8140659683518638e-01 2.1313609397152301e-02 0.0000000000000000e+00  9.3899920510140455e-01 4.7505949444326831e-02 0.0000000000000000e+00  5.1154771870125315e-01 1.3327187195119022e-01 0.0000000000000000e+00  1.4317017332026398e+00 -1.3718215306037321e-01 0.0000000000000000e+00  1.7309303794493283e+00 -6.7433780231658580e-01 0.0000000000000000e+00  1.3980635730349618e+00 -7.3111732297738818e-01 0.0000000000000000e+00  3.2487307397555482e-01 1.3348381660440020e-01 0.0000000000000000e+00  1.4568188519745773e+00 3.5963080997513486e-01 0.0000000000000000e+00  1.1415351810392573e+00 2.2635567282132255e-01 0.0000000000000000e+00  3.2788229102118821e-01 -1.7412011323259954e-01 0.0000000000000000e+00  7.3659564107589615e-01 2.4687003199975716e-01 0.0000000000000000e+00  2.5712220793194562e-01 1.5183786919625472e-01 0.0000000000000000e+00  6.0312780867281357e-01 -6.3838545891829357e-01 0.0000000000000000e+00  1.1878745388286722e+00 1.8239667049535258e-01 0.0000000000000000e+00  1.0437704417436173e+00 2.5450391706623210e-01 0.0000000000000000e+00  1.2531623912812972e+00 -4.4178605200276266e-01 0.0000000000000000e+00  1.3872310670177208e+00 2.2901751326953590e-01 0.0000000000000000e+00  1.3105358627765544e+00 -9.1639052470083568e-02 0.0000000000000000e+00  1.8787527772203092e+00 1.5640815574585239e-03 0.000000000000