<?xml version="1.0"?>
<VTKFile type="UnstructuredGrid"  version="0.1"  >
<UnstructuredGrid>
<Piece  NumberOfPoints="4269" NumberOfCells="8234">
<Points>
<DataArray  type="Float64"  NumberOfComponents="3"  format="ascii">0 1 0  0 0 0  7.5 0 0  7.5 1 0  1.197537668119028 0.5812868930080463 0  1.2 0.55 0  1.197537668119028 0.5187131069919538 0  1.190211303259031 0.4881966011250105 0  1.178201304837674 0.4592019000520907 0  1.161803398874989 0.4324429495415054 0  1.141421356237309 0.4085786437626905 0  1.117557050458495 0.3881966011250105 0  1.090798099947909 0.3717986951623264 0  1.06180339887499 0.3597886967409693 0  1.031286893008046 0.3524623318809725 0  1 0.35 0  0.9687131069919538 0.3524623318809725 0  0.9381966011250105 0.3597886967409694 0  0.9092019000520906 0.3717986951623264 0  0.8824429495415054 0.3881966011250105 0  0.8585786437626904 0.4085786437626905 0  0.8381966011250105 0.4324429495415054 0  0.8217986951623264 0.4592019000520907 0  0.8097886967409692 0.4881966011250107 0  0.8024623318809725 0.5187131069919539 0  0.8 0.55 0  0.8024623318809725 0.5812868930080463 0  0.8097886967409693 0.6118033988749896 0  0.8217986951623264 0.6407980999479095 0  0.8381966011250105 0.6675570504584947 0  0.8585786437626906 0.6914213562373096 0  0.8824429495415054 0.7118033988749896 0  0.9092019000520907 0.7282013048376736 0  0.9381966011250106 0.7402113032590307 0  0.9687131069919539 0.7475376681190276 0  1 0.75 0  1.031286893008046 0.7475376681190276 0  1.06180339887499 0.7402113032590307 0  1.090798099947909 0.7282013048376736 0  1.117557050458495 0.7118033988749896 0  1.141421356237309 0.6914213562373095 0  1.161803398874989 0.6675570504584947 0  1.178201304837674 0.6407980999479094 0  1.190211303259031 0.6118033988749896 0  3.75 0 0  3.75 1 0  1.875 0 0  1.875 1 0  0.9375 0 0  0.9375 1 0  1.40625 1 0  5.625 1 0  5.625 0 0  2.8125 1 0  2.8125 0 0  4.6875 0 0  4.6875 1 0  6.5625 0 0  6.5625 1 0  5.15625 0.5 0  4.21875 0.5 0  2.34375 0.5 0  3.28125 0.5 0  6.09375 0.5 0  7.5 0.5 0  6.897916666666666 0.5 0  1.842708333333333 0.5 0  0 0.5 0  0.46875 0 0  5.625 0.5302734375 0  7.03125 0 0  6.09375 1 0  2.8125 0.4697265625 0  3.28125 0 0  2.34375 1 0  2.34375 0 0  3.75 0.4697265625 0  4.21875 0 0  4.21875 1 0  4.6875 0.5302734375 0  3.28125 1 0  5.15625 0 0  6.09375 0 0  5.15625 1 0  0.46875 1 0  1.40625 0 0  7.03125 1 0  0.3954638734376499 0.5975780249976004 0  6.495833333333334 0.4072265624999998 0  5.859375 0.25 0  4.905729166666666 0.26513671875 0  4.453125 0.25 0  3.531770833333333 0.73486328125 0  3.968229166666667 0.73486328125 0  2.594270833333333 0.73486328125 0  3.030729166666667 0.73486328125 0  6.328125 0.75 0  7.198958333333334 0.3125000000000002 0  7.198958333333334 0.6874999999999998 0  5.390625 0.25 0  0 0.25 0  2.109375 0.75 0  2.109375 0.25 0  1.51921323205749 0.3418883887525936 0  1.522346610178253 0.6811769608297746 0  5.375456746419271 0.75 0  4.921875 0.76513671875 0  4.437956746419271 0.75 0  3.984375 0.23486328125 0  3.500456746419271 0.25 0  2.578125 0.23486328125 0  3.046875 0.23486328125 0  5.874543253580729 0.75 0  6.642123189445656 0.6909095493086836 0  6.746354166666666 0.2391688368055553 0  0.3197109619185111 0.2850049285972083 0  6.328125 0 0  0.6313375889370429 0.2351325552547357 0  0 0.75 0  6.252283381534729 0.2693808819694041 0  0.234375 1 0  6.948437500000001 0.7543055555555555 0  0.5934018769555939 0.7694151657947577 0  1.858854166666667 0.75 0  1.858854166666667 0.25 0  1.640625 0 0  2.093229166666667 0.5 0  7.5 0.25 0  3.282227579752604 0.75 0  7.5 0.75 0  1.171875 0 0  1.303539853147731 0.2235426933121065 0  5.148177083333333 0.2575683593749998 0  2.351822916666667 0.742431640625 0  1.640625 1 0  4.202380413457425 0.7645435094236485 0  3.047822985053062 0.4701848030090332 0  2.577177014946938 0.4701848030090332 0  4.672792740482199 0.76513671875 0  4.922822985053062 0.5298151969909668 0  5.390593497949761 0.5156244924311331 0  5.610292740482199 0.76513671875 0  3.516602579752604 0.5 0  4.45496853898097 0.4865915990446593 0  5.85753146101903 0.4865915990446593 0  3.749511210123698 0.23486328125 0  3.983397420247396 0.4999999999999999 0  2.343497975411212 0.2346270081980111 0  4.219002024588788 0.2346270081980111 0  0.703125 0 0  2.8125 0.2343755075688669 0  3.046875 0 0  2.578125 0 0  3.515625 0 0  3.984375 0 0  4.453125 1 0  5.390625 1 0  2.109375 0 0  2.109375 1 0  5.625 0.2921402030705575 0  5.390625 0 0  7.265625 0 0  6.796875 0 0  6.328125 1 0  3.046875 1 0  2.578125 1 0  3.984375 1 0  3.515625 1 0  4.453125 0 0  4.921875 0 0  5.859375 0 0  0.703125 1 0  1.171875 1 0  7.265625 1 0  4.921875 1 0  5.859375 1 0  0.234375 0 0  6.796875 1 0  6.980310975276531 0.2285890127127066 0  5.149170481934885 0.772689292163473 0  3.274170481934884 0.2273107078365268 0  6.101334126790364 0.7722468376159667 0  4.678005340872584 0.3000799877067239 0  2.8125 0.6921051326382495 0  3.75 0.6921051326382495 0  0.3515624999999999 0.8134571721668546 0  0.4990405774417521 0.4070099317153735 0  0.1789273931360182 0.625 0  6.31239060814315 0.5298877111157968 0  6.456979773992304 0.1917956348713352 0  6.699870808919271 0.4406293402777773 0  1.337539480965883 0.7944303676599538 0  6.058675797563041 0.2019812164653516 0  0.8203125 0.1643029084422534 0  0.1480856513011711 0.375 0  1.090769294689562 0.1719186776982972 0  7.291088163206459 0.5 0  7.094502414936563 0.5197902199074071 0  0.6046212059042245 0.5730066483871106 0  1.707231580809486 0.6342709161352207 0  1.685961352504593 0.8193269193390785 0  1.374721602852827 0.4600373025865813 0  6.486415510043844 0.5916440776477192 0  1.5234375 0.1508863828685116 0  1.707925830421689 0.3657739208189008 0  0.1674513225045584 0.8278776664019765 0  7.138268756771176 0.1438183366439137 0  7.1484375 0.8616388888888887 0  7.328562530764119 0.819498462930605 0  4.101073710123698 0.3678637200736647 0  1.693878467219965 0.1911955120941053 0  1.577566745468488 0.5110082404081502 0  6.6796875 0.8653871806883484 0  6.498039504430512 0.825568433346395 0  0.7562556668576472 0.8333197949571929 0  4.101045914668806 0.6255195807449272 0  5.030745188395182 0.382829047309028 0  2.476364945868651 0.6095868094762166 0  2.729359843907322 0.8460525663191247 0  2.9296875 0.8740763101564099 0  3.163518307559356 0.6254622797994247 0  3.666859843907322 0.8460525663191247 0  3.8671875 0.8740763101564099 0  4.8046875 0.12592368984359 0  3.14936031382311 0.8606990583876851 0  2.4609375 0.8747622921397776 0  5.023140791101972 0.1392266772452574 0  0 0.125 0  0.1759922923594607 0.1727589856739889 0  4.5703125 0.125 0  7.327755777818006 0.1766156770456191 0  5.5078125 0.125 0  5.719712725029036 0.1460701015352787 0  4.327848962028002 0.3674169956512513 0  5.982681121544351 0.3692637923021713 0  3.398926289876302 0.6245417594909667 0  5.281756792511996 0.3827993367299961 0  2.226822645963271 0.6252438868405666 0  2.234390064317166 0.8676616584526566 0  5.2734375 0.125 0  1.96796875 0.382568359375 0  2.234651037971999 0.3674169956512511 0  1.984114583333333 0.132568359375 0  1.9921875 0.875 0  1.984114583333333 0.632568359375 0  5.748733794462357 0.8678269127183313 0  3.3984375 0.875456329184688 0  1.512925924995415 0.8582958012121853 0  1.359299372802969 0.6275861864990343 0  4.810521420483513 0.4041767793635395 0  0.2996213306116602 0.455339710363317 0  5.999933717403708 0.6388425470751088 0  5.250033449003657 0.6388713364551682 0  3.631676045992918 0.3525406652400928 0  4.3359375 0.8816499670325881 0  4.343577437052484 0.6116511299909198 0  3.375033449003656 0.3611286635448316 0  5.763152151652243 0.6249404690537395 0  4.549347848347757 0.6249404690537396 0  5.5004588702411 0.6403667365776566 0  5.976118394847484 0.8816230218343086 0  5.054722486865804 0.6338007028640954 0  3.164542163493752 0.3520519332736524 0  2.445407482032355 0.3672168403687257 0  4.8046875 0.882568359375 0  4.1015625 0.117431640625 0  2.4609375 0.117431640625 0  2.695556894938151 0.3520510350344335 0  2.929443105061849 0.3520510350344335 0  3.881979231817319 0.3670559016511187 0  3.8671875 0.117431640625 0  4.805389247695744 0.6470047893641744 0  3.399370721942191 0.1184066543556767 0  5.274370721942192 0.881593345644323 0  3.618253274934649 0.1316869186284249 0  2.6953125 0.1171877537844335 0  2.9296875 0.1171877537844335 0  2.21873344389451 0.125 0  4.3359375 0.1171877625080073 0  0.6659898565672709 0.3986593551313873 0  7.363359022954956 0.3481046411219251 0  7.363359022954956 0.6518953588780749 0  5.487719392831826 0.3828237631077121 0  2.695054578344725 0.5809158475691247 0  2.944553877887707 0.5964065668438148 0  0.3515625 0.1201898858097106 0  5.5078125 1 0  4.5703125 1 0  5.031746201297604 0.882568359375 0  3.1640625 0 0  6.2109375 1 0  6.186845385763124 0.6336356480571081 0  4.1015625 1 0  6.810399074069772 0.6495574751396682 0  0.4740615253480797 0.2509287743856873 0  7.052064303830151 0.3684417917792242 0  6.195177069665382 0.1216488332168849 0  5.72300154718324 0.4112068202852788 0  3.879157465495092 0.6111892850691246 0  3.645760045247695 0.5809158475691247 0  6.868257400485771 0.3427840810237202 0  6.612030892260864 0.1521752713064389 0  6.615666885941117 0.3151079644097221 0  4.04296875 0.8633718902669071 0  1.183031453639096 0.8486801864185936 0  6.9140625 0 0  6.859079526500421 0.1398292786950638 0  6.808232443325651 0.7957411753922057 0  6.9140625 1 0  4.544955211100143 0.3675874343205077 0  1.0546875 1 0  6.122060236165557 0.3316791557072867 0  0.5859375 0 0  5.9765625 0 0  5.44921875 0.870984788733638 0  4.51171875 0.870984788733638 0  0.7608354256382215 0.2931261274224557 0  6.386875332239937 0.3156583003094978 0  6.985654756850997 0.6147408423643147 0  6.223797257919172 0.8535621912121121 0  5.936822413218736 0.1338376546337823 0  6.23933008800134 0.4095573603773768 0  0.5414022462152697 0.1305482677949959 0  6.331360438104348 0.1370086318183389 0  0.956404929269873 0.1374266563647954 0  1.2890625 1 0  0.691305981127761 0.6764829884281737 0  3.531251607241209 0.8678916320952239 0  2.59787442813022 
[...]
<PointData  Vectors="f_71627"> 
<DataArray  type="Float64"  Name="f_71627"  NumberOfComponents="3" format="ascii">0.0000000000000000e+00 0.0000000000000000e+00 0.0000000000000000e+00  0.0000000000000000e+00 0.0000000000000000e+00 0.0000000000000000e+00  0.0000000000000000e+00 0.0000000000000000e+00 0.0000000000000000e+00  0.0000000000000000e+00 0.0000000000000000e+00 0.0000000000000000e+00  0.0000000000000000e+00 0.0000000000000000e+00 0.0000000000000000e+00  0.0000000000000000e+00 0.0000000000000000e+00 0.0000000000000000e+00  0.0000000000000000e+00 0.0000000000000000e+00 0.0000000000000000e+00  0.0000000000000000e+00 0.0000000000000000e+00 0.0000000000000000e+00  0.0000000000000000e+00 0.0000000000000000e+00 0.0000000000000000e+00  0.0000000000000000e+00 0.0000000000000000e+00 0.0000000000000000e+00  0.0000000000000000e+00 0.0000000000000000e+00 0.0000000000000000e+00  0.0000000000000000e+00 0.0000000000000000e+00 0.0000000000000000e+00  0.0000000000000000e+00 0.0000000000000000e+00 0.0000000000000000e+00  0.0000000000000000e+00 0.0000000000000000e+00 0.0000000000000000e+00  0.0000000000000000e+00 0.0000000000000000e+00 0.0000000000000000e+00  0.0000000000000000e+00 0.0000000000000000e+00 0.0000000000000000e+00  0.0000000000000000e+00 0.0000000000000000e+00 0.0000000000000000e+00  0.0000000000000000e+00 0.0000000000000000e+00 0.0000000000000000e+00  0.0000000000000000e+00 0.0000000000000000e+00 0.0000000000000000e+00  0.0000000000000000e+00 0.0000000000000000e+00 0.0000000000000000e+00  0.0000000000000000e+00 0.0000000000000000e+00 0.0000000000000000e+00  0.0000000000000000e+00 0.0000000000000000e+00 0.0000000000000000e+00  0.0000000000000000e+00 0.0000000000000000e+00 0.0000000000000000e+00  0.0000000000000000e+00 0.0000000000000000e+00 0.0000000000000000e+00  0.0000000000000000e+00 0.0000000000000000e+00 0.0000000000000000e+00  0.0000000000000000e+00 0.0000000000000000e+00 0.0000000000000000e+00  0.0000000000000000e+00 0.0000000000000000e+00 0.0000000000000000e+00  0.0000000000000000e+00 0.0000000000000000e+00 0.0000000000000000e+00  0.0000000000000000e+00 0.0000000000000000e+00 0.0000000000000000e+00  0.0000000000000000e+00 0.0000000000000000e+00 0.0000000000000000e+00  0.0000000000000000e+00 0.0000000000000000e+00 0.0000000000000000e+00  0.0000000000000000e+00 0.0000000000000000e+00 0.0000000000000000e+00  0.0000000000000000e+00 0.0000000000000000e+00 0.0000000000000000e+00  0.0000000000000000e+00 0.0000000000000000e+00 0.0000000000000000e+00  0.0000000000000000e+00 0.0000000000000000e+00 0.0000000000000000e+00  0.0000000000000000e+00 0.0000000000000000e+00 0.0000000000000000e+00  0.0000000000000000e+00 0.0000000000000000e+00 0.0000000000000000e+00  0.0000000000000000e+00 0.0000000000000000e+00 0.0000000000000000e+00  0.0000000000000000e+00 0.0000000000000000e+00 0.0000000000000000e+00  0.0000000000000000e+00 0.0000000000000000e+00 0.0000000000000000e+00  0.0000000000000000e+00 0.0000000000000000e+00 0.0000000000000000e+00  0.0000000000000000e+00 0.0000000000000000e+00 0.0000000000000000e+00  0.0000000000000000e+00 0.0000000000000000e+00 0.0000000000000000e+00  0.0000000000000000e+00 0.0000000000000000e+00 0.0000000000000000e+00  0.0000000000000000e+00 0.0000000000000000e+00 0.0000000000000000e+00  0.0000000000000000e+00 0.0000000000000000e+00 0.0000000000000000e+00  0.0000000000000000e+00 0.0000000000000000e+00 0.0000000000000000e+00  0.0000000000000000e+00 0.0000000000000000e+00 0.0000000000000000e+00  0.0000000000000000e+00 0.0000000000000000e+00 0.0000000000000000e+00  0.0000000000000000e+00 0.0000000000000000e+00 0.0000000000000000e+00  0.0000000000000000e+00 0.0000000000000000e+00 0.0000000000000000e+00  0.0000000000000000e+00 0.0000000000000000e+00 0.0000000000000000e+00  0.0000000000000000e+00 0.0000000000000000e+00 0.0000000000000000e+00  0.0000000000000000e+00 0.0000000000000000e+00 0.0000000000000000e+00  0.0000000000000000e+00 0.0000000000000000e+00 0.0000000000000000e+00  0.0000000000000000e+00 0.0000000000000000e+00 0.0000000000000000e+00  0.0000000000000000e+00 0.0000000000000000e+00 0.0000000000000000e+00  0.0000000000000000e+00 0.0000000000000000e+00 0.0000000000000000e+00  0.0000000000000000e+00 0.0000000000000000e+00 0.0000000000000000e+00  1.4022291942767908e+00 9.9899884688696416e-01 0.0000000000000000e+00  1.4594615163457259e+00 6.1181225613294865e-01 0.0000000000000000e+00  1.9307905731113777e+00 -1.1111626471956997e+00 0.0000000000000000e+00  1.5772222001658944e+00 -9.0501505364381141e-01 0.0000000000000000e+00  1.8239414508037393e+00 7.6691838067381934e-01 0.0000000000000000e+00  1.5000002197687128e+00 0.0000000000000000e+00 0.0000000000000000e+00  1.6978319986487016e+00 -6.6947112037727186e-01 0.0000000000000000e+00  1.3274372856450751e+00 1.1959094676031858e+00 0.0000000000000000e+00  1.5000002197687128e+00 0.0000000000000000e+00 0.0000000000000000e+00  0.0000000000000000e+00 0.0000000000000000e+00 0.0000000000000000e+00  1.7480595747432570e+00 -7.9300998961414082e-01 0.0000000000000000e+00  0.0000000000000000e+00 0.0000000000000000e+00 0.0000000000000000e+00  0.0000000000000000e+00 0.0000000000000000e+00 0.0000000000000000e+00  1.6585358721393388e+00 1.1555672386582074e+00 0.0000000000000000e+00  0.0000000000000000e+00 0.0000000000000000e+00 0.0000000000000000e+00  0.0000000000000000e+00 0.0000000000000000e+00 0.0000000000000000e+00  0.0000000000000000e+00 0.0000000000000000e+00 0.0000000000000000e+00  2.1629944528290630e+00 -1.9088586734537846e-01 0.0000000000000000e+00  0.0000000000000000e+00 0.0000000000000000e+00 0.0000000000000000e+00  0.0000000000000000e+00 0.0000000000000000e+00 0.0000000000000000e+00  1.5342316425157996e+00 -9.8363177889393960e-01 0.0000000000000000e+00  0.0000000000000000e+00 0.0000000000000000e+00 0.0000000000000000e+00  0.0000000000000000e+00 0.0000000000000000e+00 0.0000000000000000e+00  0.0000000000000000e+00 0.0000000000000000e+00 0.0000000000000000e+00  0.0000000000000000e+00 0.0000000000000000e+00 0.0000000000000000e+00  0.0000000000000000e+00 0.0000000000000000e+00 0.0000000000000000e+00  0.0000000000000000e+00 0.0000000000000000e+00 0.0000000000000000e+00  0.0000000000000000e+00 0.0000000000000000e+00 0.0000000000000000e+00  1.3749107501870943e+00 2.0451555990934008e-02 0.0000000000000000e+00  1.4115028794255873e+00 -4.0995881724899499e-02 0.0000000000000000e+00  1.7036284716226899e+00 -2.3049746717283634e-01 0.0000000000000000e+00  1.8420082857422824e+00 2.4921991749911113e-01 0.0000000000000000e+00  1.0581910824245977e+00 -4.0920912285792704e-01 0.0000000000000000e+00  3.9453806028783421e-02 -9.6760285068921614e-01 0.0000000000000000e+00  3.6836998421579803e-01 9.6678182659627332e-01 0.0000000000000000e+00  4.3316056062642681e-02 -7.4179766948044445e-01 0.0000000000000000e+00  1.0141783904928239e+00 7.8949221176251694e-01 0.0000000000000000e+00  1.0159729705418505e+00 4.9252407601707959e-01 0.0000000000000000e+00  1.6357885350865227e+00 4.1897146938378083e-01 0.0000000000000000e+00  8.4348725981099359e-01 5.4070819055253772e-01 0.0000000000000000e+00  9.8945588854016842e-01 1.0206649447089810e-02 0.0000000000000000e+00  1.1250001648265346e+00 0.0000000000000000e+00 0.0000000000000000e+00  1.5985585772523654e+00 -3.5667678951997461e-01 0.0000000000000000e+00  9.5734611906499945e-01 3.3681531379434798e-01 0.0000000000000000e+00  1.9230765118871824e+00 1.8877987565457743e-01 0.0000000000000000e+00  8.1098425625052495e-01 -1.1730559512425165e+00 0.0000000000000000e+00  1.1735262726085691e+00 -1.7099405250212429e-01 0.0000000000000000e+00  1.8229233067635836e-01 5.9447247670296766e-01 0.0000000000000000e+00  8.4415620129480906e-01 -6.2769703576212676e-01 0.0000000000000000e+00  1.6386812886258848e+00 3.2086013303180122e-01 0.0000000000000000e+00  1.5090371716250668e+00 -4.5499056318271269e-01 0.0000000000000000e+00  1.8392723694219217e+00 -8.3142417429050919e-01 0.0000000000000000e+00  1.2454113130776534e+00 6.5805267924531285e-01 0.0000000000000000e+00  5.0770641210005030e-01 -1.8033894318338087e-02 0.0000000000000000e+00  1.3793451207861089e+00 -5.1013126232484363e-01 0.0000000000000000e+00  1.0208172613376467e+00 -5.6986495489600408e-01 0.0000000000000000e+00  1.2158351289700418e+00 -5.1290813085364012e-02 0.0000000000000000e+00  0.0000000000000000e+00 0.0000000000000000e+00 0.0000000000000000e+00  1.1824517502444156e+00 -2.7861825483463154e-01 0.0000000000000000e+00  1.1250001648265346e+00 0.0000000000000000e+00 0.0000000000000000e+00  1.1640218988853837e+00 6.0435366761294806e-01 0.0000000000000000e+00  0.0000000000000000e+00 0.0000000000000000e+00 0.0000000000000000e+00  4.9284719338648170e-01 -6.4429593474910030e-01 0.0000000000000000e+00  1.1067903958192458e+00 2.4719566792018252e-01 0.0000000000000000e+00  7.3184152960396942e-01 4.1841902808014125e-01 0.0000000000000000e+00  1.6014983815997403e+00 4.9123414811877308e-01 0.0000000000000000e+00  0.0000000000000000e+00 0.0000000000000000e+00 0.0000000000000000e+00  1.3546191467914355e+00 1.6843689930321457e-01 0.0000000000000000e+00  1.1250001648265346e+00 0.0000000000000000e+00 0.0000000000000000e+00  9.8390960880020817e-01 -4.7966925905990754e-01 0.0000000000000000e+00  1.1250001648265346e+00 0.0000000000000000e+00 0.0000000000000000e+00  0.0000000000000000e+00 0.0000000000000000e+00 0.0000000000000000e+00  2.2021853224362640e+00 -6.2569356176981242e-02 0.0000000000000000e+00  1.1176916824674086e+00 6.9252597450195297e-01 0.0000000000000000e+00  8.4358508948022537e-01 -4.4808965325834199e-01 0.0000000000000000e+00  0.0000000000000000e+00 0.0000000000000000e+00 0.0000000000000000e+00  8.6558557564475169e-01 3.3194722874252985e-01 0.0000000000000000e+00  1.4353702597953866e+00 7.6680809002408490e-01 0.0000000000000000e+00  1.9463937031827827e+00 -1.1285578026326035e+00 0.0000000000000000e+00  3.5791049250044088e-01 -3.3558407181408467e-01 0.0000000000000000e+00  1.7741884187733679e+00 7.0593473081730007e-01 0.0000000000000000e+00  1.4618813526492331e+00 -1.4502634469252842e-01 0.0000000000000000e+00  8.5851252523388510e-01 -5.4900890153444937e-01 0.0000000000000000e+00  1.6231000117474679e+00 -1.0232575182077954e+00 0.0000000000000000e+00  1.7033899495783460e+00 -7.9939425641791306e-01 0.0000000000000000e+00  1.9373986882719330e+00 -5.6895941456117971e-01 0.0000000000000000e+00  1.8846796345409238e+00 7.0242893234131479e-02 0.0000000000000000e+00  1.5668908902324914e+00 8.3842439451122253e-01 0.0000000000000000e+00  1.0475490278657047e+00 -4.3438108558268929e-01 0.0000000000000000e+00  9.4984548517331047e-01 5.2217947985044988e-01 0.0000000000000000e+00  0.0000000000000000e+00 0.0000000000000000e+00 0.0000000000000000e+00  1.8545856580220903e+00 7.8658873759603554e-01 0.0000000000000000e+00  0.0000000000000000e+00 0.0000000000000000e+00 0.0000000000000000e+00  0.0000000000000000e+00 0.0000000000000000e+00 0.0000000000000000e+00  0.0000000000000000e+00 0.0000000000000000e+00 0.0000000000000000e+00  0.0000000000000000e+00 0.0000000000000000e+00 0.0000000000000000e+00  0.0000000000000000e+00 0.0000000000000000e+00 0.0000000000000000e+00  0.0000000000000000e+00 0.0000000000000000e+00 0.0000000000000000e+00  0.0000000000000000e+00 0.0000000000000000e+00 0.0000000000000000e+00  0.0000000000000000e+00 0.0000000000000000e+00 0.0000000000000000e+00  1.4792949197798140e+00 -6.5883347014627958e-01 0.0000000000000000e+00  0.0000000000000000e+00 0.0000000000000000e+00 0.0000000000000000e+00  0.0000000000000000e+00 0.0000000000000000e+00 0.0000000000000000e+00  0.0000000000000000e+00 0.0000000000000000e+00 0.0000000000000000e+00  0.0000000000000000e+00 0.0000000000000000e+00 0.0000000000000000e+00  0.0000000000000000e+00 0.0000000000000000e+00 0.0000000000000000e+00  0.0000000000000000e+00 0.0000000000000000e+00 0.0000000000000000e+00  0.0000000000000000e+00 0.0000000000000000e+00 0.0000000000000000e+00  0.0000000000000000e+00 0.0000000000000000e+00 0.0000000000000000e+00  0.0000000000000000e+00 0.0000000000000000e+00 0.0000000000000000e+00  0.0000000000000000e+00 0.0000000000000000e+00 0.0000000000000000e+00  0.0000000000000000e+00 0.0000000000000000e+00 0.0000000000000000e+00  0.0000000000000000e+00 0.0000000000000000e+00 0.0000000000000000e+00  0.0000000000000000e+00 0.0000000000000000e+00 0.0000000000000000e+00  0.0000000000000000e+00 0.0000000000000000e+00 0.0000000000000000e+00  0.0000000000000000e+00 0.0000000000000000e+00 0.0000000000000000e+00  0.0000000000000000e+00 0.0000000000000000e+00 0.0000000000000000e+00  0.0000000000000000e+00 0.0000000000000000e+00 0.0000000000000000e+00  0.0000000000000000e+00 0.0000000000000000e+00 0.0000000000000000e+00  1.3321239504391651e+00 -1.5824571872588478e-01 0.0000000000000000e+00  7.9312447816179632e-01 5.5482149416287729e-01 0.0000000000000000e+00  9.0271881612352722e-01 -4.5337530138395249e-01 0.0000000000000000e+00  4.6761389758155991e-01 5.9922086877207748e-01 0.0000000000000000e+00  1.8694513403992468e+00 -7.7908392755866707e-01 0.0000000000000000e+00  5.9104457494837548e-01 9.5725442965749397e-01 0.0000000000000000e+00  6.2147202372559462e-01 3.4412983058568725e-01 0.0000000000000000e+00  9.3769206852234455e-01 4.8898522800759237e-02 0.0000000000000000e+00  1.3301314673237730e+00 -1.2035764665413794e-01 0.0000000000000000e+00  1.3963890173175737e+00 1.5212174744811015e-02 0.0000000000000000e+00  1.6081415973630944e+00 8.6513780515825423e-01 0.0000000000000000e+00  7.6804902234680239e-01 -1.3264439925154164e-01 0.0000000000000000e+00  1.6516018312084368e+00 -8.5235278335201814e-01 0.0000000000000000e+00  1.9758240804641680e+00 -6.7316119162440935e-01 0.0000000000000000e+00  1.2733815441816934e+00 2.5442838256756994e-01 0.0000000000000000e+00  1.3541376878012725e+00 -3.2907854534272624e-01 0.0000000000000000e+00  1.4026052299149860e+00 -4.4058968366014013e-03 0.0000000000000000e+00  1.9080043373877154e+00 -1.7314150165484585e-01 0.0000000000000000e+00  1.7521746463134333e+00 4.4812231124761764e-01 0.0000000000000000e+00  1.7255426751143976e+00 1.1653972138406535e-02 0.0000000000000000e+00  1.1614250787130078e+00 8.1740789159992291e-02 0.0000000000000000e+00  -6.1405304958939456e-02 3.1551396479564853e-01 0.0000000000000000e+00  9.1282026222923018e-01 1.1431860830067947e-01 0.0000000000000000e+00  -8.7897162350418234e-01 -8.5429613606176369e-01 0.0000000000000000e+00  1.5562841477142655e+00 -1.0550791857507683e-01 0.0000000000000000e+00  2.0182348888770516e+00 3.0914348260321683e-01 0.0000000000000000e+00  2.2055138940026069e+00 1.1954793725939472e+00 0.0000000000000000e+00  8.6018333605715214e-01 1.9326531720339164e-02 0.0000000000000000e+00  9.0796146961293800e-01 1.1809691921894627e-01 0.0000000000000000e+00  3.6654070920568849e-01 3.8801259071071909e-01 0.0000000000000000e+00  -2.4099374950431274e-01 -1.4831833765500912e-01 0.0000000000000000e+00  1.6598525359413696e+00 8.6092784339046102e-01 0.0000000000000000e+00  1.8997424825299269e+00 6.0930264863427885e-01 0.0000000000000000e+00  1.7692606834993696e-01 -5.3728114575248931e-01 0.0000000000000000e+00  8.5921076643419658e-01 -1.2084754016802580e-01 0.0000000000000000e+00  1.1344280528186004e+00 -1.6576090988016332e-01 0.0000000000000000e+00  1.2603148477761783e+00 4.5433108135903694e-01 0.0000000000000000e+00  1.1618160718983994e+00 8.3507310435021576e-01 0.0000000000000000e+00  1.7360411402170006e+00 1.1816908250049341e+00 0.0000000000000000e+00  1.0800826780104869e+00 -1.3819486228900886e+00 0.0000000000000000e+00  -3.2739873366919320e-01 2.5913176877834310e-01 0.0000000000000000e+00  2.7492822097487218e-01 4.1620033872662887e-01 0.0000000000000000e+00  1.4148513777622704e+00 6.3934702836530105e-02 0.0000000000000000e+00  -6.1757226141862642e-01 1.8215100215079824e-01 0.0000000000000000e+00  -2.7689275633066757e-01 2.3920282908871077e-01 0.0000000000000000e+00  1.3675379453497301e+00 1.1421847718270327e-01 0.0000000000000000e+00  8.9933017248934144e-01 9.0898760191152020e-02 0.0000000000000000e+00  3.2563896375594426e-01 -3.0408432497623905e-01 0.0000000000000000e+00  8.9969866418391120e-01 2.4714792764623547e-01 0.0000000000000000e+00  6.5625009614881180e-01 0.0000000000000000e+00 0.0000000000000000e+00  8.5751539444519753e-01 -1.1900954609405106e-02 0.0000000000000000e+00  7.4942451246429531e-01 -4.3433787110835698e-01 0.0000000000000000e+00  9.4711726473685942e-01 4.2330640543258541e-01 0.0000000000000000e+00  2.8201940163137529e-01 -1.0285791420308801e-01 0.0000000000000000e+00  8.9388157240532196e-01 -3.3432330225466195e-01 0.0000000000000000e+00  1.4448615524104795e+00 6.8856220856062383e-02 0.0000000000000000e+00  2.0189282662848549e+00 2.8253608494171134e-01 0.0000000000000000e+00  1.2492332444937331e+00 -8.6989910695245365e-01 0.0000000000000000e+00  1.3876007808857587e+00 4.0688940139777902e-01 0.0000000000000000e+00  1.6992189980777146e+00 -7.4066441931506188e-01 0.0000000000000000e+00  7.6108113907927366e-01 -5.6223893878363920e-02 0.0000000000000000e+00  5.3118784295826160e-01 1.0240489743968087e-01 0.0000000000000000e+00  1.4085838895916274e+00 5.1900895297682270e-01 0.0000000000000000e+00  1.8472866529818022e+00 1.2290540532227363e-01 0.0000000000000000e+00  6.8413310416783124e-01 -4.3613585898447556e-02 0.0000000000000000e+00  8.9263751006179703e-01 2.0140292272984445e-02 0.0000000000000000e+00  1.1048604395515012e+00 4.2341241875958091e-01 0.0000000000000000e+00  3.0392437911988399e-02 -1.1728989292948656e-01 0.0000000000000000e+00  5.5138990074368133e-01 -1.8025800067590481e-01 0.0000000000000000e+00  1.1865837385173326e+00 -4.1149275445524208e-01 0.0000000000000000e+00  4.8960065335080682e-01 -4.1377732372350662e-01 0.0000000000000000e+00  2.1189945988060841e+00 -1.4092933566321175e-01 0.0000000000000000e+00  1.4527208578261357e+00 -2.1019181599049447e-02 0.0000000000000000e+00  1.1733763371613524e+00 3.8257882416444411e-01 0.0000000000000000e+00  1.3971081265567737e+00 4.4885268697801506e-01 0.0000000000000000e+00  2.0033975543220013e+00 -3.5264639409388865e-01 0.0000000000000000e+00  9.4266863260293932e-01 -6.2483623463063971e-02 0.0000000000000000e+00  1.5190484625671790e+00 -1.8038054127488376e-01 0.0000000000000000e+00  1.5287719084998965e+00 -8.4360349220567432e-01 0.0000000000000000e+00  1.3777895563921987e+00 -9.1733522846224591e-01 0.0000000000000000e+00  1.0548097407560817e+00 -1.0405873747598955e+00 0.0000000000000000e+00  1.4450734449624050e+00 -5.0146910947425605e-01 0.0000000000000000e+00  -5.0226555059123858e-02 2.7667231672625475e-01 0.0000000000000000e+00  1.1051052598851154e+00 1.0971481716934122e+00 0.0000000000000000e+00  1.4167199862928865e+00 -3.7995672762461775e-02 0.0000000000000000e+00  2.1407105283689880e+00 -1.6182191993975037e+00 0.0000000000000000e+00  1.2692219228279153e-01 2.1826279428969222e-01 0.0000000000000000e+00  7.0767993684607911e-01 2.3104198683575297e-01 0.0000000000000000e+00  4.7252638384977086e-01 -8.4186062549076113e-01 0.0000000000000000e+00  1.9163648285246568e+00 5.4215297468595922e-02 0.0000000000000000e+00  1.6713059788511693e+00 1.0583547857618276e+00 0.0000000000000000e+00  2.1483388787274666e+00 3.7345611661468725e-01 0.0000000000000000e+00  1.1782817975384070e+00 1.6785443244927650e-01 0.0000000000000000e+00  9.0967817448063426e-01 1.1502298666640888e-01 0.0000000000000000e+00  8.2552090410300738e-01 -2.0538436326951484e-01 0.0000000000000000e+00  9.7434293389453797e-01 5.0844207454702466e-02 0.0000000000000000e+00  1.1669909373854637e+00 5.1932241850777959e-02 0.0000000000000000e+00  1.6868032347164195e+00 1.8857930622265454e-01 0.0000000000000000e+00  8.3724531630070365e-01 4.2534514195560608e-01 0.0000000000000000e+00  1.1640436013043495e-01 2.8710528930648826e-01 0.0000000000000000e+00  4.2019128838044695e-01 -2.3957845190012453e-01 0.0000000000000000e+00  1.1823322340817854e+00 -3.5715573433403575e-01 0.0000000000000000e+00  1.5142921839198360e+00 4.8906937729384736e-01 0.0000000000000000e+00  1.2582380117404932e+00 9.4567818972534767e-01 0.0000000000000000e+00  1.5263551726303699e+00 -4.5825862263628880e-01 0.0000000000