<?xml version="1.0"?>
<VTKFile type="UnstructuredGrid"  version="0.1"  >
<UnstructuredGrid>
<Piece  NumberOfPoints="4269" NumberOfCells="8234">
<Points>
<DataArray  type="Float64"  NumberOfComponents="3"  format="ascii">0 1 0  0 0 0  7.5 0 0  7.5 1 0  1.197537668119028 0.5812868930080463 0  1.2 0.55 0  1.197537668119028 0.5187131069919538 0  1.190211303259031 0.4881966011250105 0  1.178201304837674 0.4592019000520907 0  1.161803398874989 0.4324429495415054 0  1.141421356237309 0.4085786437626905 0  1.117557050458495 0.3881966011250105 0  1.090798099947909 0.3717986951623264 0  1.06180339887499 0.3597886967409693 0  1.031286893008046 0.3524623318809725 0  1 0.35 0  0.9687131069919538 0.3524623318809725 0  0.9381966011250105 0.3597886967409694 0  0.9092019000520906 0.3717986951623264 0  0.8824429495415054 0.3881966011250105 0  0.8585786437626904 0.4085786437626905 0  0.8381966011250105 0.4324429495415054 0  0.8217986951623264 0.4592019000520907 0  0.8097886967409692 0.4881966011250107 0  0.8024623318809725 0.5187131069919539 0  0.8 0.55 0  0.8024623318809725 0.5812868930080463 0  0.8097886967409693 0.6118033988749896 0  0.8217986951623264 0.6407980999479095 0  0.8381966011250105 0.6675570504584947 0  0.8585786437626906 0.6914213562373096 0  0.8824429495415054 0.7118033988749896 0  0.9092019000520907 0.7282013048376736 0  0.9381966011250106 0.7402113032590307 0  0.9687131069919539 0.7475376681190276 0  1 0.75 0  1.031286893008046 0.7475376681190276 0  1.06180339887499 0.7402113032590307 0  1.090798099947909 0.7282013048376736 0  1.117557050458495 0.7118033988749896 0  1.141421356237309 0.6914213562373095 0  1.161803398874989 0.6675570504584947 0  1.178201304837674 0.6407980999479094 0  1.190211303259031 0.6118033988749896 0  3.75 0 0  3.75 1 0  1.875 0 0  1.875 1 0  0.9375 0 0  0.9375 1 0  1.40625 1 0  5.625 1 0  5.625 0 0  2.8125 1 0  2.8125 0 0  4.6875 0 0  4.6875 1 0  6.5625 0 0  6.5625 1 0  5.15625 0.5 0  4.21875 0.5 0  2.34375 0.5 0  3.28125 0.5 0  6.09375 0.5 0  7.5 0.5 0  6.897916666666666 0.5 0  1.842708333333333 0.5 0  0 0.5 0  0.46875 0 0  5.625 0.5302734375 0  7.03125 0 0  6.09375 1 0  2.8125 0.4697265625 0  3.28125 0 0  2.34375 1 0  2.34375 0 0  3.75 0.4697265625 0  4.21875 0 0  4.21875 1 0  4.6875 0.5302734375 0  3.28125 1 0  5.15625 0 0  6.09375 0 0  5.15625 1 0  0.46875 1 0  1.40625 0 0  7.03125 1 0  0.3954638734376499 0.5975780249976004 0  6.495833333333334 0.4072265624999998 0  5.859375 0.25 0  4.905729166666666 0.26513671875 0  4.453125 0.25 0  3.531770833333333 0.73486328125 0  3.968229166666667 0.73486328125 0  2.594270833333333 0.73486328125 0  3.030729166666667 0.73486328125 0  6.328125 0.75 0  7.198958333333334 0.3125000000000002 0  7.198958333333334 0.6874999999999998 0  5.390625 0.25 0  0 0.25 0  2.109375 0.75 0  2.109375 0.25 0  1.51921323205749 0.3418883887525936 0  1.522346610178253 0.6811769608297746 0  5.375456746419271 0.75 0  4.921875 0.76513671875 0  4.437956746419271 0.75 0  3.984375 0.23486328125 0  3.500456746419271 0.25 0  2.578125 0.23486328125 0  3.046875 0.23486328125 0  5.874543253580729 0.75 0  6.642123189445656 0.6909095493086836 0  6.746354166666666 0.2391688368055553 0  0.3197109619185111 0.2850049285972083 0  6.328125 0 0  0.6313375889370429 0.2351325552547357 0  0 0.75 0  6.252283381534729 0.2693808819694041 0  0.234375 1 0  6.948437500000001 0.7543055555555555 0  0.5934018769555939 0.7694151657947577 0  1.858854166666667 0.75 0  1.858854166666667 0.25 0  1.640625 0 0  2.093229166666667 0.5 0  7.5 0.25 0  3.282227579752604 0.75 0  7.5 0.75 0  1.171875 0 0  1.303539853147731 0.2235426933121065 0  5.148177083333333 0.2575683593749998 0  2.351822916666667 0.742431640625 0  1.640625 1 0  4.202380413457425 0.7645435094236485 0  3.047822985053062 0.4701848030090332 0  2.577177014946938 0.4701848030090332 0  4.672792740482199 0.76513671875 0  4.922822985053062 0.5298151969909668 0  5.390593497949761 0.5156244924311331 0  5.610292740482199 0.76513671875 0  3.516602579752604 0.5 0  4.45496853898097 0.4865915990446593 0  5.85753146101903 0.4865915990446593 0  3.749511210123698 0.23486328125 0  3.983397420247396 0.4999999999999999 0  2.343497975411212 0.2346270081980111 0  4.219002024588788 0.2346270081980111 0  0.703125 0 0  2.8125 0.2343755075688669 0  3.046875 0 0  2.578125 0 0  3.515625 0 0  3.984375 0 0  4.453125 1 0  5.390625 1 0  2.109375 0 0  2.109375 1 0  5.625 0.2921402030705575 0  5.390625 0 0  7.265625 0 0  6.796875 0 0  6.328125 1 0  3.046875 1 0  2.578125 1 0  3.984375 1 0  3.515625 1 0  4.453125 0 0  4.921875 0 0  5.859375 0 0  0.703125 1 0  1.171875 1 0  7.265625 1 0  4.921875 1 0  5.859375 1 0  0.234375 0 0  6.796875 1 0  6.980310975276531 0.2285890127127066 0  5.149170481934885 0.772689292163473 0  3.274170481934884 0.2273107078365268 0  6.101334126790364 0.7722468376159667 0  4.678005340872584 0.3000799877067239 0  2.8125 0.6921051326382495 0  3.75 0.6921051326382495 0  0.3515624999999999 0.8134571721668546 0  0.4990405774417521 0.4070099317153735 0  0.1789273931360182 0.625 0  6.31239060814315 0.5298877111157968 0  6.456979773992304 0.1917956348713352 0  6.699870808919271 0.4406293402777773 0  1.337539480965883 0.7944303676599538 0  6.058675797563041 0.2019812164653516 0  0.8203125 0.1643029084422534 0  0.1480856513011711 0.375 0  1.090769294689562 0.1719186776982972 0  7.291088163206459 0.5 0  7.094502414936563 0.5197902199074071 0  0.6046212059042245 0.5730066483871106 0  1.707231580809486 0.6342709161352207 0  1.685961352504593 0.8193269193390785 0  1.374721602852827 0.4600373025865813 0  6.486415510043844 0.5916440776477192 0  1.5234375 0.1508863828685116 0  1.707925830421689 0.3657739208189008 0  0.1674513225045584 0.8278776664019765 0  7.138268756771176 0.1438183366439137 0  7.1484375 0.8616388888888887 0  7.328562530764119 0.819498462930605 0  4.101073710123698 0.3678637200736647 0  1.693878467219965 0.1911955120941053 0  1.577566745468488 0.5110082404081502 0  6.6796875 0.8653871806883484 0  6.498039504430512 0.825568433346395 0  0.7562556668576472 0.8333197949571929 0  4.101045914668806 0.6255195807449272 0  5.030745188395182 0.382829047309028 0  2.476364945868651 0.6095868094762166 0  2.729359843907322 0.8460525663191247 0  2.9296875 0.8740763101564099 0  3.163518307559356 0.6254622797994247 0  3.666859843907322 0.8460525663191247 0  3.8671875 0.8740763101564099 0  4.8046875 0.12592368984359 0  3.14936031382311 0.8606990583876851 0  2.4609375 0.8747622921397776 0  5.023140791101972 0.1392266772452574 0  0 0.125 0  0.1759922923594607 0.1727589856739889 0  4.5703125 0.125 0  7.327755777818006 0.1766156770456191 0  5.5078125 0.125 0  5.719712725029036 0.1460701015352787 0  4.327848962028002 0.3674169956512513 0  5.982681121544351 0.3692637923021713 0  3.398926289876302 0.6245417594909667 0  5.281756792511996 0.3827993367299961 0  2.226822645963271 0.6252438868405666 0  2.234390064317166 0.8676616584526566 0  5.2734375 0.125 0  1.96796875 0.382568359375 0  2.234651037971999 0.3674169956512511 0  1.984114583333333 0.132568359375 0  1.9921875 0.875 0  1.984114583333333 0.632568359375 0  5.748733794462357 0.8678269127183313 0  3.3984375 0.875456329184688 0  1.512925924995415 0.8582958012121853 0  1.359299372802969 0.6275861864990343 0  4.810521420483513 0.4041767793635395 0  0.2996213306116602 0.455339710363317 0  5.999933717403708 0.6388425470751088 0  5.250033449003657 0.6388713364551682 0  3.631676045992918 0.3525406652400928 0  4.3359375 0.8816499670325881 0  4.343577437052484 0.6116511299909198 0  3.375033449003656 0.3611286635448316 0  5.763152151652243 0.6249404690537395 0  4.549347848347757 0.6249404690537396 0  5.5004588702411 0.6403667365776566 0  5.976118394847484 0.8816230218343086 0  5.054722486865804 0.6338007028640954 0  3.164542163493752 0.3520519332736524 0  2.445407482032355 0.3672168403687257 0  4.8046875 0.882568359375 0  4.1015625 0.117431640625 0  2.4609375 0.117431640625 0  2.695556894938151 0.3520510350344335 0  2.929443105061849 0.3520510350344335 0  3.881979231817319 0.3670559016511187 0  3.8671875 0.117431640625 0  4.805389247695744 0.6470047893641744 0  3.399370721942191 0.1184066543556767 0  5.274370721942192 0.881593345644323 0  3.618253274934649 0.1316869186284249 0  2.6953125 0.1171877537844335 0  2.9296875 0.1171877537844335 0  2.21873344389451 0.125 0  4.3359375 0.1171877625080073 0  0.6659898565672709 0.3986593551313873 0  7.363359022954956 0.3481046411219251 0  7.363359022954956 0.6518953588780749 0  5.487719392831826 0.3828237631077121 0  2.695054578344725 0.5809158475691247 0  2.944553877887707 0.5964065668438148 0  0.3515625 0.1201898858097106 0  5.5078125 1 0  4.5703125 1 0  5.031746201297604 0.882568359375 0  3.1640625 0 0  6.2109375 1 0  6.186845385763124 0.6336356480571081 0  4.1015625 1 0  6.810399074069772 0.6495574751396682 0  0.4740615253480797 0.2509287743856873 0  7.052064303830151 0.3684417917792242 0  6.195177069665382 0.1216488332168849 0  5.72300154718324 0.4112068202852788 0  3.879157465495092 0.6111892850691246 0  3.645760045247695 0.5809158475691247 0  6.868257400485771 0.3427840810237202 0  6.612030892260864 0.1521752713064389 0  6.615666885941117 0.3151079644097221 0  4.04296875 0.8633718902669071 0  1.183031453639096 0.8486801864185936 0  6.9140625 0 0  6.859079526500421 0.1398292786950638 0  6.808232443325651 0.7957411753922057 0  6.9140625 1 0  4.544955211100143 0.3675874343205077 0  1.0546875 1 0  6.122060236165557 0.3316791557072867 0  0.5859375 0 0  5.9765625 0 0  5.44921875 0.870984788733638 0  4.51171875 0.870984788733638 0  0.7608354256382215 0.2931261274224557 0  6.386875332239937 0.3156583003094978 0  6.985654756850997 0.6147408423643147 0  6.223797257919172 0.8535621912121121 0  5.936822413218736 0.1338376546337823 0  6.23933008800134 0.4095573603773768 0  0.5414022462152697 0.1305482677949959 0  6.331360438104348 0.1370086318183389 0  0.956404929269873 0.1374266563647954 0  1.2890625 1 0  0.691305981127761 0.6764829884281737 0  3.531251607241209 0.8678916320952239 0  2.59787442813022 
[...]
<PointData  Vectors="f_71627"> 
<DataArray  type="Float64"  Name="f_71627"  NumberOfComponents="3" format="ascii">0.0000000000000000e+00 0.0000000000000000e+00 0.0000000000000000e+00  0.0000000000000000e+00 0.0000000000000000e+00 0.0000000000000000e+00  0.0000000000000000e+00 0.0000000000000000e+00 0.0000000000000000e+00  0.0000000000000000e+00 0.0000000000000000e+00 0.0000000000000000e+00  0.0000000000000000e+00 0.0000000000000000e+00 0.0000000000000000e+00  0.0000000000000000e+00 0.0000000000000000e+00 0.0000000000000000e+00  0.0000000000000000e+00 0.0000000000000000e+00 0.0000000000000000e+00  0.0000000000000000e+00 0.0000000000000000e+00 0.0000000000000000e+00  0.0000000000000000e+00 0.0000000000000000e+00 0.0000000000000000e+00  0.0000000000000000e+00 0.0000000000000000e+00 0.0000000000000000e+00  0.0000000000000000e+00 0.0000000000000000e+00 0.0000000000000000e+00  0.0000000000000000e+00 0.0000000000000000e+00 0.0000000000000000e+00  0.0000000000000000e+00 0.0000000000000000e+00 0.0000000000000000e+00  0.0000000000000000e+00 0.0000000000000000e+00 0.0000000000000000e+00  0.0000000000000000e+00 0.0000000000000000e+00 0.0000000000000000e+00  0.0000000000000000e+00 0.0000000000000000e+00 0.0000000000000000e+00  0.0000000000000000e+00 0.0000000000000000e+00 0.0000000000000000e+00  0.0000000000000000e+00 0.0000000000000000e+00 0.0000000000000000e+00  0.0000000000000000e+00 0.0000000000000000e+00 0.0000000000000000e+00  0.0000000000000000e+00 0.0000000000000000e+00 0.0000000000000000e+00  0.0000000000000000e+00 0.0000000000000000e+00 0.0000000000000000e+00  0.0000000000000000e+00 0.0000000000000000e+00 0.0000000000000000e+00  0.0000000000000000e+00 0.0000000000000000e+00 0.0000000000000000e+00  0.0000000000000000e+00 0.0000000000000000e+00 0.0000000000000000e+00  0.0000000000000000e+00 0.0000000000000000e+00 0.0000000000000000e+00  0.0000000000000000e+00 0.0000000000000000e+00 0.0000000000000000e+00  0.0000000000000000e+00 0.0000000000000000e+00 0.0000000000000000e+00  0.0000000000000000e+00 0.0000000000000000e+00 0.0000000000000000e+00  0.0000000000000000e+00 0.0000000000000000e+00 0.0000000000000000e+00  0.0000000000000000e+00 0.0000000000000000e+00 0.0000000000000000e+00  0.0000000000000000e+00 0.0000000000000000e+00 0.0000000000000000e+00  0.0000000000000000e+00 0.0000000000000000e+00 0.0000000000000000e+00  0.0000000000000000e+00 0.0000000000000000e+00 0.0000000000000000e+00  0.0000000000000000e+00 0.0000000000000000e+00 0.0000000000000000e+00  0.0000000000000000e+00 0.0000000000000000e+00 0.0000000000000000e+00  0.0000000000000000e+00 0.0000000000000000e+00 0.0000000000000000e+00  0.0000000000000000e+00 0.0000000000000000e+00 0.0000000000000000e+00  0.0000000000000000e+00 0.0000000000000000e+00 0.0000000000000000e+00  0.0000000000000000e+00 0.0000000000000000e+00 0.0000000000000000e+00  0.0000000000000000e+00 0.0000000000000000e+00 0.0000000000000000e+00  0.0000000000000000e+00 0.0000000000000000e+00 0.0000000000000000e+00  0.0000000000000000e+00 0.0000000000000000e+00 0.0000000000000000e+00  0.0000000000000000e+00 0.0000000000000000e+00 0.0000000000000000e+00  0.0000000000000000e+00 0.0000000000000000e+00 0.0000000000000000e+00  0.0000000000000000e+00 0.0000000000000000e+00 0.0000000000000000e+00  0.0000000000000000e+00 0.0000000000000000e+00 0.0000000000000000e+00  0.0000000000000000e+00 0.0000000000000000e+00 0.0000000000000000e+00  0.0000000000000000e+00 0.0000000000000000e+00 0.0000000000000000e+00  0.0000000000000000e+00 0.0000000000000000e+00 0.0000000000000000e+00  0.0000000000000000e+00 0.0000000000000000e+00 0.0000000000000000e+00  0.0000000000000000e+00 0.0000000000000000e+00 0.0000000000000000e+00  0.0000000000000000e+00 0.0000000000000000e+00 0.0000000000000000e+00  0.0000000000000000e+00 0.0000000000000000e+00 0.0000000000000000e+00  0.0000000000000000e+00 0.0000000000000000e+00 0.0000000000000000e+00  0.0000000000000000e+00 0.0000000000000000e+00 0.0000000000000000e+00  0.0000000000000000e+00 0.0000000000000000e+00 0.0000000000000000e+00  0.0000000000000000e+00 0.0000000000000000e+00 0.0000000000000000e+00  0.0000000000000000e+00 0.0000000000000000e+00 0.0000000000000000e+00  0.0000000000000000e+00 0.0000000000000000e+00 0.0000000000000000e+00  1.0840435378530506e+00 -2.7888339384924523e-03 0.0000000000000000e+00  1.0834697833341436e+00 1.1763422092569958e-03 0.0000000000000000e+00  1.0952903289231846e+00 -1.3602180498957397e-03 0.0000000000000000e+00  1.0806948410867736e+00 -1.4705219015302823e-03 0.0000000000000000e+00  1.0723051522935263e+00 8.4622802072738430e-04 0.0000000000000000e+00  1.5000002036604885e+00 0.0000000000000000e+00 0.0000000000000000e+00  1.1638981627691734e+00 -7.1356480619348883e-03 0.0000000000000000e+00  7.7693420391377799e-01 2.3378228572107718e-01 0.0000000000000000e+00  1.5000002036604885e+00 0.0000000000000000e+00 0.0000000000000000e+00  0.0000000000000000e+00 0.0000000000000000e+00 0.0000000000000000e+00  1.0774961699914438e+00 -8.7284735590093866e-04 0.0000000000000000e+00  0.0000000000000000e+00 0.0000000000000000e+00 0.0000000000000000e+00  0.0000000000000000e+00 0.0000000000000000e+00 0.0000000000000000e+00  1.0834085121898838e+00 -4.6146017838399379e-04 0.0000000000000000e+00  0.0000000000000000e+00 0.0000000000000000e+00 0.0000000000000000e+00  0.0000000000000000e+00 0.0000000000000000e+00 0.0000000000000000e+00  0.0000000000000000e+00 0.0000000000000000e+00 0.0000000000000000e+00  1.0794764453547383e+00 3.6069927608308567e-04 0.0000000000000000e+00  0.0000000000000000e+00 0.0000000000000000e+00 0.0000000000000000e+00  0.0000000000000000e+00 0.0000000000000000e+00 0.0000000000000000e+00  1.0818103207244001e+00 -7.6218838649077234e-04 0.0000000000000000e+00  0.0000000000000000e+00 0.0000000000000000e+00 0.0000000000000000e+00  0.0000000000000000e+00 0.0000000000000000e+00 0.0000000000000000e+00  0.0000000000000000e+00 0.0000000000000000e+00 0.0000000000000000e+00  0.0000000000000000e+00 0.0000000000000000e+00 0.0000000000000000e+00  0.0000000000000000e+00 0.0000000000000000e+00 0.0000000000000000e+00  0.0000000000000000e+00 0.0000000000000000e+00 0.0000000000000000e+00  0.0000000000000000e+00 0.0000000000000000e+00 0.0000000000000000e+00  1.3646769815363444e+00 -2.8193438256434424e-02 0.0000000000000000e+00  1.1198377805828337e+00 -6.4056254468247489e-03 0.0000000000000000e+00  1.0905977355178060e+00 2.3033318607425376e-03 0.0000000000000000e+00  1.0683376415341970e+00 8.7968104238143469e-03 0.0000000000000000e+00  1.0676070856622271e+00 3.7408546166047261e-03 0.0000000000000000e+00  1.0756491738955041e+00 -2.3329230879599715e-03 0.0000000000000000e+00  1.0838672859946779e+00 7.5155562169688841e-04 0.0000000000000000e+00  1.0823031193147366e+00 2.8124329194461899e-03 0.0000000000000000e+00  1.0840042251187789e+00 -2.1584790907486053e-03 0.0000000000000000e+00  1.0917054836892410e+00 2.8496027250617035e-03 0.0000000000000000e+00  7.4134312351660581e-01 7.5052787493762648e-03 0.0000000000000000e+00  9.3332823728934156e-01 2.3066513767610680e-02 0.0000000000000000e+00  1.0784118537149570e+00 5.4520615983647111e-04 0.0000000000000000e+00  1.1250001527453666e+00 0.0000000000000000e+00 0.0000000000000000e+00  1.1965852075984571e+00 8.0163287390517882e-02 0.0000000000000000e+00  1.1326794564946905e+00 -3.4151173422633220e-02 0.0000000000000000e+00  1.8921712692327273e+00 7.1534592007692344e-01 0.0000000000000000e+00  2.4138316621243619e-02 -2.2765755195150822e-01 0.0000000000000000e+00  1.0809116787668116e+00 5.6860725662626222e-03 0.0000000000000000e+00  1.0862813427172791e+00 1.9136818079605324e-03 0.0000000000000000e+00  1.0872102549675808e+00 5.5084217632506349e-03 0.0000000000000000e+00  1.0795660229236483e+00 -1.0646493205456282e-03 0.0000000000000000e+00  1.0807549951198916e+00 -4.4108789627384636e-03 0.0000000000000000e+00  1.0798855258980866e+00 -3.4345902501591689e-03 0.0000000000000000e+00  1.0845636093357627e+00 4.4421021768396510e-04 0.0000000000000000e+00  1.0875369903310506e+00 2.9345662797782880e-04 0.0000000000000000e+00  1.0673097984788096e+00 -3.4794643641848097e-03 0.0000000000000000e+00  1.0963559377443461e+00 -7.1895247195943998e-03 0.0000000000000000e+00  1.2308153183572901e+00 -8.5521112811318828e-02 0.0000000000000000e+00  0.0000000000000000e+00 0.0000000000000000e+00 0.0000000000000000e+00  1.2528848806812396e+00 -3.1326714327980421e-01 0.0000000000000000e+00  1.1250001527453666e+00 0.0000000000000000e+00 0.0000000000000000e+00  1.1088352891979534e+00 3.3589946455330169e-03 0.0000000000000000e+00  0.0000000000000000e+00 0.0000000000000000e+00 0.0000000000000000e+00  1.2622631310362717e+00 -4.6411852679514613e-03 0.0000000000000000e+00  1.0422503258490268e+00 2.0449861711980877e-01 0.0000000000000000e+00  1.6275316572684975e+00 -2.7396822628941708e-01 0.0000000000000000e+00  1.3477665220138459e+00 1.6200824072120942e-01 0.0000000000000000e+00  0.0000000000000000e+00 0.0000000000000000e+00 0.0000000000000000e+00  1.0881589962622067e+00 -1.3915088203808115e-02 0.0000000000000000e+00  1.1250001527453666e+00 0.0000000000000000e+00 0.0000000000000000e+00  1.0751858867676527e+00 -1.0468873063066856e-03 0.0000000000000000e+00  1.1250001527453666e+00 0.0000000000000000e+00 0.0000000000000000e+00  0.0000000000000000e+00 0.0000000000000000e+00 0.0000000000000000e+00  2.3171654059460605e+00 4.3980577333604783e-02 0.0000000000000000e+00  1.0775088497418317e+00 5.4965898439316620e-03 0.0000000000000000e+00  1.0854103645266397e+00 1.7254102456584375e-02 0.0000000000000000e+00  0.0000000000000000e+00 0.0000000000000000e+00 0.0000000000000000e+00  1.0864602454385699e+00 3.6179518584333512e-03 0.0000000000000000e+00  1.0835257413897685e+00 -9.7245163666122769e-04 0.0000000000000000e+00  1.0851586715237629e+00 -8.0387161087353183e-04 0.0000000000000000e+00  1.0935294436814575e+00 7.1513422805724669e-03 0.0000000000000000e+00  1.0795817264646070e+00 -3.6891821607031618e-03 0.0000000000000000e+00  1.0779455635114334e+00 -8.8177691228776792e-04 0.0000000000000000e+00  1.0688829533555233e+00 2.1834888916309370e-03 0.0000000000000000e+00  1.0854827066744197e+00 6.5509447117027169e-04 0.0000000000000000e+00  1.0807034574721177e+00 2.0383779132634519e-03 0.0000000000000000e+00  1.0753128031802908e+00 -6.3993304155695381e-04 0.0000000000000000e+00  1.0800020036463887e+00 -5.7377994855383023e-03 0.0000000000000000e+00  1.0843219190848872e+00 7.7578402143527365e-04 0.0000000000000000e+00  1.0815862619508918e+00 -1.7226275350360185e-02 0.0000000000000000e+00  1.0750041592133861e+00 3.8977945804375279e-03 0.0000000000000000e+00  0.0000000000000000e+00 0.0000000000000000e+00 0.0000000000000000e+00  1.0818356239207394e+00 -8.1696276392581225e-05 0.0000000000000000e+00  0.0000000000000000e+00 0.0000000000000000e+00 0.0000000000000000e+00  0.0000000000000000e+00 0.0000000000000000e+00 0.0000000000000000e+00  0.0000000000000000e+00 0.0000000000000000e+00 0.0000000000000000e+00  0.0000000000000000e+00 0.0000000000000000e+00 0.0000000000000000e+00  0.0000000000000000e+00 0.0000000000000000e+00 0.0000000000000000e+00  0.0000000000000000e+00 0.0000000000000000e+00 0.0000000000000000e+00  0.0000000000000000e+00 0.0000000000000000e+00 0.0000000000000000e+00  0.0000000000000000e+00 0.0000000000000000e+00 0.0000000000000000e+00  1.0644801605697665e+00 -2.6885293294601001e-03 0.0000000000000000e+00  0.0000000000000000e+00 0.0000000000000000e+00 0.0000000000000000e+00  0.0000000000000000e+00 0.0000000000000000e+00 0.0000000000000000e+00  0.0000000000000000e+00 0.0000000000000000e+00 0.0000000000000000e+00  0.0000000000000000e+00 0.0000000000000000e+00 0.0000000000000000e+00  0.0000000000000000e+00 0.0000000000000000e+00 0.0000000000000000e+00  0.0000000000000000e+00 0.0000000000000000e+00 0.0000000000000000e+00  0.0000000000000000e+00 0.0000000000000000e+00 0.0000000000000000e+00  0.0000000000000000e+00 0.0000000000000000e+00 0.0000000000000000e+00  0.0000000000000000e+00 0.0000000000000000e+00 0.0000000000000000e+00  0.0000000000000000e+00 0.0000000000000000e+00 0.0000000000000000e+00  0.0000000000000000e+00 0.0000000000000000e+00 0.0000000000000000e+00  0.0000000000000000e+00 0.0000000000000000e+00 0.0000000000000000e+00  0.0000000000000000e+00 0.0000000000000000e+00 0.0000000000000000e+00  0.0000000000000000e+00 0.0000000000000000e+00 0.0000000000000000e+00  0.0000000000000000e+00 0.0000000000000000e+00 0.0000000000000000e+00  0.0000000000000000e+00 0.0000000000000000e+00 0.0000000000000000e+00  0.0000000000000000e+00 0.0000000000000000e+00 0.0000000000000000e+00  0.0000000000000000e+00 0.0000000000000000e+00 0.0000000000000000e+00  1.1491042862316143e+00 6.0678850829231157e-03 0.0000000000000000e+00  1.0843673914653595e+00 1.0054020696476235e-03 0.0000000000000000e+00  1.0815980545726656e+00 -1.8599390069989541e-03 0.0000000000000000e+00  1.0780399959213782e+00 -9.8639680603755543e-03 0.0000000000000000e+00  1.0707531354682487e+00 2.5589191289449018e-03 0.0000000000000000e+00  1.0829357831176651e+00 -6.4401475850266892e-04 0.0000000000000000e+00  1.0831858216128976e+00 -2.2501962486715242e-03 0.0000000000000000e+00  9.0777658008576445e-01 2.2538235168469881e-02 0.0000000000000000e+00  1.3546330929468895e+00 -1.7609416353620613e-01 0.0000000000000000e+00  1.3940051130511768e+00 -1.3410168599955426e-02 0.0000000000000000e+00  1.0744284777993045e+00 -3.5386164119864910e-03 0.0000000000000000e+00  1.0834845115564453e+00 4.6129147675404137e-04 0.0000000000000000e+00  1.1551989830568548e+00 -5.1279580161657269e-03 0.0000000000000000e+00  1.8901706890762011e+00 -1.1122397978242703e-01 0.0000000000000000e+00  1.0809466852173104e+00 2.4999471846161520e-03 0.0000000000000000e+00  1.4599960254586182e+00 -3.5077772276708341e-01 0.0000000000000000e+00  1.4042295455471339e+00 -2.6886165732976575e-02 0.0000000000000000e+00  2.0279671778471342e+00 -1.5442572194254350e-01 0.0000000000000000e+00  1.4059862220169870e+00 -1.7737401784818776e-02 0.0000000000000000e+00  1.3558358506218919e+00 -5.9633427193513710e-03 0.0000000000000000e+00  1.1470160514366428e+00 7.3427548244696357e-03 0.0000000000000000e+00  2.1186141090114816e-01 6.8524751751629753e-02 0.0000000000000000e+00  1.7267565326009042e+00 -4.3017019607223672e-01 0.0000000000000000e+00  -7.3073834123087170e-02 -3.4082729705493880e-01 0.0000000000000000e+00  1.0886862093049607e+00 -2.7333548863641469e-03 0.0000000000000000e+00  1.8641962173427498e+00 3.3154142375047618e-01 0.0000000000000000e+00  1.3904403380779720e+00 8.7488766657515615e-01 0.0000000000000000e+00  8.5271959167500577e-01 -3.9509208694596252e-04 0.0000000000000000e+00  9.2450109539263980e-01 -1.1716469331535639e-02 0.0000000000000000e+00  1.0144744991715735e+00 -4.8174742866316572e-03 0.0000000000000000e+00  7.0898134667528878e-01 6.2506535441716254e-03 0.0000000000000000e+00  1.0810921059548508e+00 8.0924530833129745e-04 0.0000000000000000e+00  1.6056483164049700e+00 3.6924643790759692e-01 0.0000000000000000e+00  -2.4118511270031051e-01 6.1940970053102640e-01 0.0000000000000000e+00  1.1160684317774485e+00 4.4333027084255145e-03 0.0000000000000000e+00  1.0087712100384776e+00 -3.0525434349507915e-03 0.0000000000000000e+00  1.1400282143112306e+00 4.1006880663715128e-01 0.0000000000000000e+00  1.0879406864067289e+00 4.4761817455187788e-04 0.0000000000000000e+00  1.0795823872727812e+00 -3.1006048309739631e-04 0.0000000000000000e+00  1.0871732813039043e+00 4.0651138704233649e-03 0.0000000000000000e+00  1.0684109575352105e+00 -7.4632889766626878e-04 0.0000000000000000e+00  1.0676143949694872e+00 -2.4545249446952522e-03 0.0000000000000000e+00  1.0841333767063650e+00 -1.5295574000591067e-03 0.0000000000000000e+00  1.0313921558463253e+00 1.0577058599163451e-03 0.0000000000000000e+00  1.0787566885638016e+00 -4.5016279600912602e-03 0.0000000000000000e+00  1.0875754405972753e+00 8.9109721053328862e-03 0.0000000000000000e+00  1.0803522411533921e+00 -3.5164378962580646e-03 0.0000000000000000e+00  1.0682892453017614e+00 -9.0485400119761142e-04 0.0000000000000000e+00  1.0482914980960485e+00 -3.8056417654965613e-03 0.0000000000000000e+00  6.5625008910146398e-01 0.0000000000000000e+00 0.0000000000000000e+00  8.6396782247266246e-01 -2.8610150572079981e-02 0.0000000000000000e+00  1.0752532545839872e+00 2.3042977981018718e-03 0.0000000000000000e+00  3.7396240154653454e-01 1.2173018719907978e-02 0.0000000000000000e+00  1.0785202053107361e+00 -4.4323730500228798e-03 0.0000000000000000e+00  1.0578733879303088e+00 -7.7998581013383856e-04 0.0000000000000000e+00  1.0774554748782308e+00 2.9099101474805536e-04 0.0000000000000000e+00  1.0665051732468298e+00 -1.4881027108084950e-03 0.0000000000000000e+00  1.0854016276692589e+00 -1.2589635777434341e-03 0.0000000000000000e+00  1.0799317032633640e+00 9.9399068185013293e-04 0.0000000000000000e+00  1.1143587973642686e+00 7.1782274159918709e-03 0.0000000000000000e+00  1.0240383027768152e+00 6.9676691121371939e-02 0.0000000000000000e+00  1.0784139983844729e+00 3.4155452486689494e-04 0.0000000000000000e+00  1.1086564440206923e+00 8.7017400143142964e-02 0.0000000000000000e+00  1.1000384528452885e+00 -1.1781607382174777e-02 0.0000000000000000e+00  1.1438348194083690e+00 -1.2953219945960825e-01 0.0000000000000000e+00  1.0164588882421033e+00 2.7941972170389956e-01 0.0000000000000000e+00  1.1925368020799385e+00 -1.4920126331424266e-01 0.0000000000000000e+00  1.1001449337305389e+00 -2.1004217480163393e-03 0.0000000000000000e+00  1.0750261512636019e+00 -4.2747294453274035e-04 0.0000000000000000e+00  1.8966041752948271e+00 -3.8258143556813551e-01 0.0000000000000000e+00  -1.0329878213005719e+00 -2.3538909661546709e-01 0.0000000000000000e+00  1.0784753140892716e+00 -8.3926250683375283e-04 0.0000000000000000e+00  1.4572485147935907e+00 -6.4566706461609752e-02 0.0000000000000000e+00  1.0726330795439154e+00 5.9271630477670861e-04 0.0000000000000000e+00  1.0720608549517867e+00 -5.5289606463900139e-03 0.0000000000000000e+00  1.0816523470587278e+00 8.4906873931433146e-04 0.0000000000000000e+00  1.0855516672110526e+00 3.8524671725520239e-03 0.0000000000000000e+00  1.0874881410348500e+00 1.5090295109479097e-03 0.0000000000000000e+00  1.0836459732513231e+00 -1.3954412829720289e-03 0.0000000000000000e+00  1.0695689716999914e+00 -2.5723253939990143e-03 0.0000000000000000e+00  1.0815733839946440e+00 1.9686004094419704e-03 0.0000000000000000e+00  1.0770072017217989e+00 -5.2570867132545702e-03 0.0000000000000000e+00  1.1304885868038512e+00 -5.4785323949482236e-04 0.0000000000000000e+00  1.0790910387444754e+00 -2.2629342211791452e-03 0.0000000000000000e+00  1.0840469507370520e+00 -1.2108914524735475e-03 0.0000000000000000e+00  1.0876963397039565e+00 -6.0985062380058425e-03 0.0000000000000000e+00  1.0980980102445672e+00 7.2181829027373866e-03 0.0000000000000000e+00  1.0918411255364415e+00 6.9907916922864605e-03 0.0000000000000000e+00  1.0500548513301866e+00 -4.8369753789183276e-03 0.0000000000000000e+00  1.0830118079693503e+00 -1.1203938205517577e-03 0.0000000000000000e+00  1.0833400321246165e+00 -1.7126606535776645e-04 0.0000000000000000e+00  1.0802857030562987e+00 1.6914447817614053e-04 0.0000000000000000e+00  1.0876883055494491e+00 -4.7820647665043051e-04 0.0000000000000000e+00  1.0735981138934929e+00 3.8592972036697671e-03 0.0000000000000000e+00  1.0702729992403994e+00 -4.2461799003727435e-03 0.0000000000000000e+00  1.1108803095986841e+00 1.3916625616334869e-02 0.0000000000000000e+00  1.0624801463899805e+00 -5.3382257155596942e-03 0.0000000000000000e+00  1.0565526814842658e+00 -7.6967187509715510e-04 0.0000000000000000e+00  1.0714315456685237e+00 4.5653050709696334e-03 0.0000000000000000e+00  1.0451203933703663e+00 -5.1689132056813310e-02 0.0000000000000000e+00  1.0786938457889239e+00 -7.9448935553672363e-03 0.0000000000000000e+00  1.2305955861783817e+00 -4.2831402767055982e-01 0.0000000000000000e+00  9.8886268751524176e-01 -1.6793253532683728e-03 0.0000000000000000e+00  1.0678486785099266e+00 2.3895708919413391e-02 0.0000000000000000e+00  1.0840037898669723e+00 -2.0054325489965216e-04 0