<?xml version="1.0"?>
<VTKFile type="UnstructuredGrid"  version="0.1"  >
<UnstructuredGrid>
<Piece  NumberOfPoints="4269" NumberOfCells="8234">
<Points>
<DataArray  type="Float64"  NumberOfComponents="3"  format="ascii">0 1 0  0 0 0  7.5 0 0  7.5 1 0  1.197537668119028 0.5812868930080463 0  1.2 0.55 0  1.197537668119028 0.5187131069919538 0  1.190211303259031 0.4881966011250105 0  1.178201304837674 0.4592019000520907 0  1.161803398874989 0.4324429495415054 0  1.141421356237309 0.4085786437626905 0  1.117557050458495 0.3881966011250105 0  1.090798099947909 0.3717986951623264 0  1.06180339887499 0.3597886967409693 0  1.031286893008046 0.3524623318809725 0  1 0.35 0  0.9687131069919538 0.3524623318809725 0  0.9381966011250105 0.3597886967409694 0  0.9092019000520906 0.3717986951623264 0  0.8824429495415054 0.3881966011250105 0  0.8585786437626904 0.4085786437626905 0  0.8381966011250105 0.4324429495415054 0  0.8217986951623264 0.4592019000520907 0  0.8097886967409692 0.4881966011250107 0  0.8024623318809725 0.5187131069919539 0  0.8 0.55 0  0.8024623318809725 0.5812868930080463 0  0.8097886967409693 0.6118033988749896 0  0.8217986951623264 0.6407980999479095 0  0.8381966011250105 0.6675570504584947 0  0.8585786437626906 0.6914213562373096 0  0.8824429495415054 0.7118033988749896 0  0.9092019000520907 0.7282013048376736 0  0.9381966011250106 0.7402113032590307 0  0.9687131069919539 0.7475376681190276 0  1 0.75 0  1.031286893008046 0.7475376681190276 0  1.06180339887499 0.7402113032590307 0  1.090798099947909 0.7282013048376736 0  1.117557050458495 0.7118033988749896 0  1.141421356237309 0.6914213562373095 0  1.161803398874989 0.6675570504584947 0  1.178201304837674 0.6407980999479094 0  1.190211303259031 0.6118033988749896 0  3.75 0 0  3.75 1 0  1.875 0 0  1.875 1 0  0.9375 0 0  0.9375 1 0  1.40625 1 0  5.625 1 0  5.625 0 0  2.8125 1 0  2.8125 0 0  4.6875 0 0  4.6875 1 0  6.5625 0 0  6.5625 1 0  5.15625 0.5 0  4.21875 0.5 0  2.34375 0.5 0  3.28125 0.5 0  6.09375 0.5 0  7.5 0.5 0  6.897916666666666 0.5 0  1.842708333333333 0.5 0  0 0.5 0  0.46875 0 0  5.625 0.5302734375 0  7.03125 0 0  6.09375 1 0  2.8125 0.4697265625 0  3.28125 0 0  2.34375 1 0  2.34375 0 0  3.75 0.4697265625 0  4.21875 0 0  4.21875 1 0  4.6875 0.5302734375 0  3.28125 1 0  5.15625 0 0  6.09375 0 0  5.15625 1 0  0.46875 1 0  1.40625 0 0  7.03125 1 0  0.3954638734376499 0.5975780249976004 0  6.495833333333334 0.4072265624999998 0  5.859375 0.25 0  4.905729166666666 0.26513671875 0  4.453125 0.25 0  3.531770833333333 0.73486328125 0  3.968229166666667 0.73486328125 0  2.594270833333333 0.73486328125 0  3.030729166666667 0.73486328125 0  6.328125 0.75 0  7.198958333333334 0.3125000000000002 0  7.198958333333334 0.6874999999999998 0  5.390625 0.25 0  0 0.25 0  2.109375 0.75 0  2.109375 0.25 0  1.51921323205749 0.3418883887525936 0  1.522346610178253 0.6811769608297746 0  5.375456746419271 0.75 0  4.921875 0.76513671875 0  4.437956746419271 0.75 0  3.984375 0.23486328125 0  3.500456746419271 0.25 0  2.578125 0.23486328125 0  3.046875 0.23486328125 0  5.874543253580729 0.75 0  6.642123189445656 0.6909095493086836 0  6.746354166666666 0.2391688368055553 0  0.3197109619185111 0.2850049285972083 0  6.328125 0 0  0.6313375889370429 0.2351325552547357 0  0 0.75 0  6.252283381534729 0.2693808819694041 0  0.234375 1 0  6.948437500000001 0.7543055555555555 0  0.5934018769555939 0.7694151657947577 0  1.858854166666667 0.75 0  1.858854166666667 0.25 0  1.640625 0 0  2.093229166666667 0.5 0  7.5 0.25 0  3.282227579752604 0.75 0  7.5 0.75 0  1.171875 0 0  1.303539853147731 0.2235426933121065 0  5.148177083333333 0.2575683593749998 0  2.351822916666667 0.742431640625 0  1.640625 1 0  4.202380413457425 0.7645435094236485 0  3.047822985053062 0.4701848030090332 0  2.577177014946938 0.4701848030090332 0  4.672792740482199 0.76513671875 0  4.922822985053062 0.5298151969909668 0  5.390593497949761 0.5156244924311331 0  5.610292740482199 0.76513671875 0  3.516602579752604 0.5 0  4.45496853898097 0.4865915990446593 0  5.85753146101903 0.4865915990446593 0  3.749511210123698 0.23486328125 0  3.983397420247396 0.4999999999999999 0  2.343497975411212 0.2346270081980111 0  4.219002024588788 0.2346270081980111 0  0.703125 0 0  2.8125 0.2343755075688669 0  3.046875 0 0  2.578125 0 0  3.515625 0 0  3.984375 0 0  4.453125 1 0  5.390625 1 0  2.109375 0 0  2.109375 1 0  5.625 0.2921402030705575 0  5.390625 0 0  7.265625 0 0  6.796875 0 0  6.328125 1 0  3.046875 1 0  2.578125 1 0  3.984375 1 0  3.515625 1 0  4.453125 0 0  4.921875 0 0  5.859375 0 0  0.703125 1 0  1.171875 1 0  7.265625 1 0  4.921875 1 0  5.859375 1 0  0.234375 0 0  6.796875 1 0  6.980310975276531 0.2285890127127066 0  5.149170481934885 0.772689292163473 0  3.274170481934884 0.2273107078365268 0  6.101334126790364 0.7722468376159667 0  4.678005340872584 0.3000799877067239 0  2.8125 0.6921051326382495 0  3.75 0.6921051326382495 0  0.3515624999999999 0.8134571721668546 0  0.4990405774417521 0.4070099317153735 0  0.1789273931360182 0.625 0  6.31239060814315 0.5298877111157968 0  6.456979773992304 0.1917956348713352 0  6.699870808919271 0.4406293402777773 0  1.337539480965883 0.7944303676599538 0  6.058675797563041 0.2019812164653516 0  0.8203125 0.1643029084422534 0  0.1480856513011711 0.375 0  1.090769294689562 0.1719186776982972 0  7.291088163206459 0.5 0  7.094502414936563 0.5197902199074071 0  0.6046212059042245 0.5730066483871106 0  1.707231580809486 0.6342709161352207 0  1.685961352504593 0.8193269193390785 0  1.374721602852827 0.4600373025865813 0  6.486415510043844 0.5916440776477192 0  1.5234375 0.1508863828685116 0  1.707925830421689 0.3657739208189008 0  0.1674513225045584 0.8278776664019765 0  7.138268756771176 0.1438183366439137 0  7.1484375 0.8616388888888887 0  7.328562530764119 0.819498462930605 0  4.101073710123698 0.3678637200736647 0  1.693878467219965 0.1911955120941053 0  1.577566745468488 0.5110082404081502 0  6.6796875 0.8653871806883484 0  6.498039504430512 0.825568433346395 0  0.7562556668576472 0.8333197949571929 0  4.101045914668806 0.6255195807449272 0  5.030745188395182 0.382829047309028 0  2.476364945868651 0.6095868094762166 0  2.729359843907322 0.8460525663191247 0  2.9296875 0.8740763101564099 0  3.163518307559356 0.6254622797994247 0  3.666859843907322 0.8460525663191247 0  3.8671875 0.8740763101564099 0  4.8046875 0.12592368984359 0  3.14936031382311 0.8606990583876851 0  2.4609375 0.8747622921397776 0  5.023140791101972 0.1392266772452574 0  0 0.125 0  0.1759922923594607 0.1727589856739889 0  4.5703125 0.125 0  7.327755777818006 0.1766156770456191 0  5.5078125 0.125 0  5.719712725029036 0.1460701015352787 0  4.327848962028002 0.3674169956512513 0  5.982681121544351 0.3692637923021713 0  3.398926289876302 0.6245417594909667 0  5.281756792511996 0.3827993367299961 0  2.226822645963271 0.6252438868405666 0  2.234390064317166 0.8676616584526566 0  5.2734375 0.125 0  1.96796875 0.382568359375 0  2.234651037971999 0.3674169956512511 0  1.984114583333333 0.132568359375 0  1.9921875 0.875 0  1.984114583333333 0.632568359375 0  5.748733794462357 0.8678269127183313 0  3.3984375 0.875456329184688 0  1.512925924995415 0.8582958012121853 0  1.359299372802969 0.6275861864990343 0  4.810521420483513 0.4041767793635395 0  0.2996213306116602 0.455339710363317 0  5.999933717403708 0.6388425470751088 0  5.250033449003657 0.6388713364551682 0  3.631676045992918 0.3525406652400928 0  4.3359375 0.8816499670325881 0  4.343577437052484 0.6116511299909198 0  3.375033449003656 0.3611286635448316 0  5.763152151652243 0.6249404690537395 0  4.549347848347757 0.6249404690537396 0  5.5004588702411 0.6403667365776566 0  5.976118394847484 0.8816230218343086 0  5.054722486865804 0.6338007028640954 0  3.164542163493752 0.3520519332736524 0  2.445407482032355 0.3672168403687257 0  4.8046875 0.882568359375 0  4.1015625 0.117431640625 0  2.4609375 0.117431640625 0  2.695556894938151 0.3520510350344335 0  2.929443105061849 0.3520510350344335 0  3.881979231817319 0.3670559016511187 0  3.8671875 0.117431640625 0  4.805389247695744 0.6470047893641744 0  3.399370721942191 0.1184066543556767 0  5.274370721942192 0.881593345644323 0  3.618253274934649 0.1316869186284249 0  2.6953125 0.1171877537844335 0  2.9296875 0.1171877537844335 0  2.21873344389451 0.125 0  4.3359375 0.1171877625080073 0  0.6659898565672709 0.3986593551313873 0  7.363359022954956 0.3481046411219251 0  7.363359022954956 0.6518953588780749 0  5.487719392831826 0.3828237631077121 0  2.695054578344725 0.5809158475691247 0  2.944553877887707 0.5964065668438148 0  0.3515625 0.1201898858097106 0  5.5078125 1 0  4.5703125 1 0  5.031746201297604 0.882568359375 0  3.1640625 0 0  6.2109375 1 0  6.186845385763124 0.6336356480571081 0  4.1015625 1 0  6.810399074069772 0.6495574751396682 0  0.4740615253480797 0.2509287743856873 0  7.052064303830151 0.3684417917792242 0  6.195177069665382 0.1216488332168849 0  5.72300154718324 0.4112068202852788 0  3.879157465495092 0.6111892850691246 0  3.645760045247695 0.5809158475691247 0  6.868257400485771 0.3427840810237202 0  6.612030892260864 0.1521752713064389 0  6.615666885941117 0.3151079644097221 0  4.04296875 0.8633718902669071 0  1.183031453639096 0.8486801864185936 0  6.9140625 0 0  6.859079526500421 0.1398292786950638 0  6.808232443325651 0.7957411753922057 0  6.9140625 1 0  4.544955211100143 0.3675874343205077 0  1.0546875 1 0  6.122060236165557 0.3316791557072867 0  0.5859375 0 0  5.9765625 0 0  5.44921875 0.870984788733638 0  4.51171875 0.870984788733638 0  0.7608354256382215 0.2931261274224557 0  6.386875332239937 0.3156583003094978 0  6.985654756850997 0.6147408423643147 0  6.223797257919172 0.8535621912121121 0  5.936822413218736 0.1338376546337823 0  6.23933008800134 0.4095573603773768 0  0.5414022462152697 0.1305482677949959 0  6.331360438104348 0.1370086318183389 0  0.956404929269873 0.1374266563647954 0  1.2890625 1 0  0.691305981127761 0.6764829884281737 0  3.531251607241209 0.8678916320952239 0  2.59787442813022 
[...]
<PointData  Vectors="f_71627"> 
<DataArray  type="Float64"  Name="f_71627"  NumberOfComponents="3" format="ascii">0.0000000000000000e+00 0.0000000000000000e+00 0.0000000000000000e+00  0.0000000000000000e+00 0.0000000000000000e+00 0.0000000000000000e+00  0.0000000000000000e+00 0.0000000000000000e+00 0.0000000000000000e+00  0.0000000000000000e+00 0.0000000000000000e+00 0.0000000000000000e+00  0.0000000000000000e+00 0.0000000000000000e+00 0.0000000000000000e+00  0.0000000000000000e+00 0.0000000000000000e+00 0.0000000000000000e+00  0.0000000000000000e+00 0.0000000000000000e+00 0.0000000000000000e+00  0.0000000000000000e+00 0.0000000000000000e+00 0.0000000000000000e+00  0.0000000000000000e+00 0.0000000000000000e+00 0.0000000000000000e+00  0.0000000000000000e+00 0.0000000000000000e+00 0.0000000000000000e+00  0.0000000000000000e+00 0.0000000000000000e+00 0.0000000000000000e+00  0.0000000000000000e+00 0.0000000000000000e+00 0.0000000000000000e+00  0.0000000000000000e+00 0.0000000000000000e+00 0.0000000000000000e+00  0.0000000000000000e+00 0.0000000000000000e+00 0.0000000000000000e+00  0.0000000000000000e+00 0.0000000000000000e+00 0.0000000000000000e+00  0.0000000000000000e+00 0.0000000000000000e+00 0.0000000000000000e+00  0.0000000000000000e+00 0.0000000000000000e+00 0.0000000000000000e+00  0.0000000000000000e+00 0.0000000000000000e+00 0.0000000000000000e+00  0.0000000000000000e+00 0.0000000000000000e+00 0.0000000000000000e+00  0.0000000000000000e+00 0.0000000000000000e+00 0.0000000000000000e+00  0.0000000000000000e+00 0.0000000000000000e+00 0.0000000000000000e+00  0.0000000000000000e+00 0.0000000000000000e+00 0.0000000000000000e+00  0.0000000000000000e+00 0.0000000000000000e+00 0.0000000000000000e+00  0.0000000000000000e+00 0.0000000000000000e+00 0.0000000000000000e+00  0.0000000000000000e+00 0.0000000000000000e+00 0.0000000000000000e+00  0.0000000000000000e+00 0.0000000000000000e+00 0.0000000000000000e+00  0.0000000000000000e+00 0.0000000000000000e+00 0.0000000000000000e+00  0.0000000000000000e+00 0.0000000000000000e+00 0.0000000000000000e+00  0.0000000000000000e+00 0.0000000000000000e+00 0.0000000000000000e+00  0.0000000000000000e+00 0.0000000000000000e+00 0.0000000000000000e+00  0.0000000000000000e+00 0.0000000000000000e+00 0.0000000000000000e+00  0.0000000000000000e+00 0.0000000000000000e+00 0.0000000000000000e+00  0.0000000000000000e+00 0.0000000000000000e+00 0.0000000000000000e+00  0.0000000000000000e+00 0.0000000000000000e+00 0.0000000000000000e+00  0.0000000000000000e+00 0.0000000000000000e+00 0.0000000000000000e+00  0.0000000000000000e+00 0.0000000000000000e+00 0.0000000000000000e+00  0.0000000000000000e+00 0.0000000000000000e+00 0.0000000000000000e+00  0.0000000000000000e+00 0.0000000000000000e+00 0.0000000000000000e+00  0.0000000000000000e+00 0.0000000000000000e+00 0.0000000000000000e+00  0.0000000000000000e+00 0.0000000000000000e+00 0.0000000000000000e+00  0.0000000000000000e+00 0.0000000000000000e+00 0.0000000000000000e+00  0.0000000000000000e+00 0.0000000000000000e+00 0.0000000000000000e+00  0.0000000000000000e+00 0.0000000000000000e+00 0.0000000000000000e+00  0.0000000000000000e+00 0.0000000000000000e+00 0.0000000000000000e+00  0.0000000000000000e+00 0.0000000000000000e+00 0.0000000000000000e+00  0.0000000000000000e+00 0.0000000000000000e+00 0.0000000000000000e+00  0.0000000000000000e+00 0.0000000000000000e+00 0.0000000000000000e+00  0.0000000000000000e+00 0.0000000000000000e+00 0.0000000000000000e+00  0.0000000000000000e+00 0.0000000000000000e+00 0.0000000000000000e+00  0.0000000000000000e+00 0.0000000000000000e+00 0.0000000000000000e+00  0.0000000000000000e+00 0.0000000000000000e+00 0.0000000000000000e+00  0.0000000000000000e+00 0.0000000000000000e+00 0.0000000000000000e+00  0.0000000000000000e+00 0.0000000000000000e+00 0.0000000000000000e+00  0.0000000000000000e+00 0.0000000000000000e+00 0.0000000000000000e+00  0.0000000000000000e+00 0.0000000000000000e+00 0.0000000000000000e+00  0.0000000000000000e+00 0.0000000000000000e+00 0.0000000000000000e+00  0.0000000000000000e+00 0.0000000000000000e+00 0.0000000000000000e+00  0.0000000000000000e+00 0.0000000000000000e+00 0.0000000000000000e+00  0.0000000000000000e+00 0.0000000000000000e+00 0.0000000000000000e+00  1.0973378588784755e+00 -5.8917158011854770e-04 0.0000000000000000e+00  1.1001289647480978e+00 2.1731056211209487e-04 0.0000000000000000e+00  1.1356056113727881e+00 1.4127760661732863e-01 0.0000000000000000e+00  1.0975637540070777e+00 -1.4166307646941330e-02 0.0000000000000000e+00  1.0931917947246494e+00 -1.3460234389772222e-03 0.0000000000000000e+00  1.5000002073157876e+00 0.0000000000000000e+00 0.0000000000000000e+00  1.1834786938225099e+00 -3.9043175217785371e-03 0.0000000000000000e+00  6.0604709338207408e-01 -1.6076616374224462e-01 0.0000000000000000e+00  1.5000002073157876e+00 0.0000000000000000e+00 0.0000000000000000e+00  0.0000000000000000e+00 0.0000000000000000e+00 0.0000000000000000e+00  1.1004770439371969e+00 -1.2383859413772054e-03 0.0000000000000000e+00  0.0000000000000000e+00 0.0000000000000000e+00 0.0000000000000000e+00  0.0000000000000000e+00 0.0000000000000000e+00 0.0000000000000000e+00  1.0854509894439430e+00 -7.1604500908496238e-02 0.0000000000000000e+00  0.0000000000000000e+00 0.0000000000000000e+00 0.0000000000000000e+00  0.0000000000000000e+00 0.0000000000000000e+00 0.0000000000000000e+00  0.0000000000000000e+00 0.0000000000000000e+00 0.0000000000000000e+00  1.0960503176602621e+00 -1.7658121379220120e-03 0.0000000000000000e+00  0.0000000000000000e+00 0.0000000000000000e+00 0.0000000000000000e+00  0.0000000000000000e+00 0.0000000000000000e+00 0.0000000000000000e+00  1.1011459182163483e+00 8.7462488081301037e-04 0.0000000000000000e+00  0.0000000000000000e+00 0.0000000000000000e+00 0.0000000000000000e+00  0.0000000000000000e+00 0.0000000000000000e+00 0.0000000000000000e+00  0.0000000000000000e+00 0.0000000000000000e+00 0.0000000000000000e+00  0.0000000000000000e+00 0.0000000000000000e+00 0.0000000000000000e+00  0.0000000000000000e+00 0.0000000000000000e+00 0.0000000000000000e+00  0.0000000000000000e+00 0.0000000000000000e+00 0.0000000000000000e+00  0.0000000000000000e+00 0.0000000000000000e+00 0.0000000000000000e+00  1.3742674634085481e+00 3.9630570267398857e-02 0.0000000000000000e+00  1.1277714749746384e+00 -4.7706723223165000e-03 0.0000000000000000e+00  1.1064026234579709e+00 -1.2006465768053759e-03 0.0000000000000000e+00  1.0856430855974384e+00 6.0503970887704217e-04 0.0000000000000000e+00  1.0846257664804184e+00 2.1970612756636700e-03 0.0000000000000000e+00  1.1004046197175741e+00 -5.9297803268939251e-03 0.0000000000000000e+00  1.1014068298044493e+00 -2.3896601962558638e-04 0.0000000000000000e+00  1.2926787657790402e+00 -7.1044453540848859e-02 0.0000000000000000e+00  1.1244206567867010e+00 -2.4103543139312743e-02 0.0000000000000000e+00  1.0973688769905678e+00 -1.1954239863419135e-03 0.0000000000000000e+00  7.8175246225051009e-01 8.8691049890372148e-04 0.0000000000000000e+00  9.4831911907114630e-01 2.0002803931323809e-02 0.0000000000000000e+00  1.0861151366565946e+00 5.5555627909088523e-03 0.0000000000000000e+00  1.1250001554868407e+00 0.0000000000000000e+00 0.0000000000000000e+00  1.0322886002046405e+00 4.1553632158738102e-01 0.0000000000000000e+00  1.6937835537976489e+00 2.7499715920967360e-01 0.0000000000000000e+00  8.5197621637484811e-01 -1.5941728686614454e-01 0.0000000000000000e+00  1.1372672604672529e+00 -6.9395930777801196e-01 0.0000000000000000e+00  1.0966890919992038e+00 3.2980683344520784e-03 0.0000000000000000e+00  1.1022918765687486e+00 4.5716393144083593e-03 0.0000000000000000e+00  1.1017137348852273e+00 1.3884266131723307e-03 0.0000000000000000e+00  1.0935873185356808e+00 -2.8836116798052545e-03 0.0000000000000000e+00  1.0911339283991968e+00 -6.2112183735378900e-03 0.0000000000000000e+00  9.8812549014768358e-01 -9.2844454063906845e-02 0.0000000000000000e+00  1.0726440256891110e+00 -1.8918485680069329e-02 0.0000000000000000e+00  1.1008266562262954e+00 -8.4620579516390059e-04 0.0000000000000000e+00  1.0793672565937498e+00 -2.1229525553016354e-03 0.0000000000000000e+00  1.1109380817663628e+00 -7.8192529581475028e-03 0.0000000000000000e+00  1.2124028706418066e+00 -3.9743034893272036e-02 0.0000000000000000e+00  0.0000000000000000e+00 0.0000000000000000e+00 0.0000000000000000e+00  1.1631785502451983e+00 -2.5803011617559929e-01 0.0000000000000000e+00  1.1250001554868407e+00 0.0000000000000000e+00 0.0000000000000000e+00  1.1175329036459296e+00 1.6885059381733595e-04 0.0000000000000000e+00  0.0000000000000000e+00 0.0000000000000000e+00 0.0000000000000000e+00  1.2592989978447280e+00 -1.9454797331947948e-03 0.0000000000000000e+00  1.1225284892514469e+00 2.7357048545038687e-01 0.0000000000000000e+00  1.0689541332713672e+00 -1.1804816100887081e-01 0.0000000000000000e+00  2.1635619605545413e+00 7.6026986929540585e-01 0.0000000000000000e+00  0.0000000000000000e+00 0.0000000000000000e+00 0.0000000000000000e+00  1.4378497697159169e+00 9.5682006124477526e-01 0.0000000000000000e+00  1.1250001554868407e+00 0.0000000000000000e+00 0.0000000000000000e+00  1.1041247623263941e+00 -1.0760618104520654e-02 0.0000000000000000e+00  1.1250001554868407e+00 0.0000000000000000e+00 0.0000000000000000e+00  0.0000000000000000e+00 0.0000000000000000e+00 0.0000000000000000e+00  2.1550993608405569e+00 -1.7306500628586488e-01 0.0000000000000000e+00  1.0952694774442899e+00 1.9731096472856381e-03 0.0000000000000000e+00  1.6658479532233743e+00 1.0307788363669398e-01 0.0000000000000000e+00  0.0000000000000000e+00 0.0000000000000000e+00 0.0000000000000000e+00  1.1020015480494039e+00 9.8483138134421405e-04 0.0000000000000000e+00  1.0949736896339286e+00 -3.1822022310578651e-02 0.0000000000000000e+00  1.0270635936378667e+00 -1.2563716225104712e-01 0.0000000000000000e+00  1.1036995458483128e+00 2.7379821639900498e-03 0.0000000000000000e+00  1.0960888584933604e+00 4.5553552306884238e-04 0.0000000000000000e+00  1.0981543707696184e+00 5.3554765313197942e-04 0.0000000000000000e+00  1.0950463813145985e+00 -1.1355686021446580e-04 0.0000000000000000e+00  1.1025036207275745e+00 -4.7301030471453426e-03 0.0000000000000000e+00  1.0969465717487838e+00 1.4183225480262774e-03 0.0000000000000000e+00  1.1030868234270699e+00 -3.4721598686545279e-03 0.0000000000000000e+00  1.0939903664448647e+00 -5.0370243303251390e-03 0.0000000000000000e+00  1.1016777340690720e+00 3.7437332342660939e-04 0.0000000000000000e+00  9.9323501377338796e-01 -2.2672245295313967e-01 0.0000000000000000e+00  1.0858487180355769e+00 -7.8046359083442849e-04 0.0000000000000000e+00  0.0000000000000000e+00 0.0000000000000000e+00 0.0000000000000000e+00  1.0406886253127485e+00 -3.8159205620372776e-02 0.0000000000000000e+00  0.0000000000000000e+00 0.0000000000000000e+00 0.0000000000000000e+00  0.0000000000000000e+00 0.0000000000000000e+00 0.0000000000000000e+00  0.0000000000000000e+00 0.0000000000000000e+00 0.0000000000000000e+00  0.0000000000000000e+00 0.0000000000000000e+00 0.0000000000000000e+00  0.0000000000000000e+00 0.0000000000000000e+00 0.0000000000000000e+00  0.0000000000000000e+00 0.0000000000000000e+00 0.0000000000000000e+00  0.0000000000000000e+00 0.0000000000000000e+00 0.0000000000000000e+00  0.0000000000000000e+00 0.0000000000000000e+00 0.0000000000000000e+00  1.0870572727167469e+00 -9.1539596417823047e-04 0.0000000000000000e+00  0.0000000000000000e+00 0.0000000000000000e+00 0.0000000000000000e+00  0.0000000000000000e+00 0.0000000000000000e+00 0.0000000000000000e+00  0.0000000000000000e+00 0.0000000000000000e+00 0.0000000000000000e+00  0.0000000000000000e+00 0.0000000000000000e+00 0.0000000000000000e+00  0.0000000000000000e+00 0.0000000000000000e+00 0.0000000000000000e+00  0.0000000000000000e+00 0.0000000000000000e+00 0.0000000000000000e+00  0.0000000000000000e+00 0.0000000000000000e+00 0.0000000000000000e+00  0.0000000000000000e+00 0.0000000000000000e+00 0.0000000000000000e+00  0.0000000000000000e+00 0.0000000000000000e+00 0.0000000000000000e+00  0.0000000000000000e+00 0.0000000000000000e+00 0.0000000000000000e+00  0.0000000000000000e+00 0.0000000000000000e+00 0.0000000000000000e+00  0.0000000000000000e+00 0.0000000000000000e+00 0.0000000000000000e+00  0.0000000000000000e+00 0.0000000000000000e+00 0.0000000000000000e+00  0.0000000000000000e+00 0.0000000000000000e+00 0.0000000000000000e+00  0.0000000000000000e+00 0.0000000000000000e+00 0.0000000000000000e+00  0.0000000000000000e+00 0.0000000000000000e+00 0.0000000000000000e+00  0.0000000000000000e+00 0.0000000000000000e+00 0.0000000000000000e+00  0.0000000000000000e+00 0.0000000000000000e+00 0.0000000000000000e+00  1.1518704691051938e+00 -2.0759851043162096e-03 0.0000000000000000e+00  1.0992975224879984e+00 2.5906275646902454e-03 0.0000000000000000e+00  1.0849582300601515e+00 -8.2750365652856876e-03 0.0000000000000000e+00  1.0986718331125203e+00 -1.8398028473088268e-03 0.0000000000000000e+00  1.0901771353692078e+00 1.1071917824127381e-03 0.0000000000000000e+00  1.1453853612532574e+00 -5.8270259546689088e-02 0.0000000000000000e+00  1.0999250535594689e+00 -3.5144131392873079e-03 0.0000000000000000e+00  9.4188519093950984e-01 6.0163807389128729e-02 0.0000000000000000e+00  1.3251147870852844e+00 -9.3997453607064671e-02 0.0000000000000000e+00  1.3958899293807581e+00 1.7078116696721050e-02 0.0000000000000000e+00  1.0933618544064341e+00 -9.4933873992908121e-04 0.0000000000000000e+00  1.1174343759058338e+00 -2.9061853021901912e-03 0.0000000000000000e+00  1.1605082989362130e+00 -7.2722980193316786e-03 0.0000000000000000e+00  2.4495003194190383e+00 -2.4769493761690092e-01 0.0000000000000000e+00  1.1050094816060756e+00 -4.9073444647761860e-04 0.0000000000000000e+00  1.3145965636158121e+00 -3.2302755512600112e-01 0.0000000000000000e+00  1.4025516868680350e+00 -4.8518535767479703e-03 0.0000000000000000e+00  1.8655688722151325e+00 -2.0807636790917983e-01 0.0000000000000000e+00  1.3940270877918213e+00 -4.1777778973821813e-03 0.0000000000000000e+00  1.3529243300941807e+00 2.2249145472593057e-03 0.0000000000000000e+00  1.1620526681350480e+00 1.1643926086997994e-01 0.0000000000000000e+00  9.4497087087305476e-01 -1.2005146313616157e+00 0.0000000000000000e+00  1.4959802642742519e+00 -6.4923887878282582e-01 0.0000000000000000e+00  -1.2405197966378478e+00 -1.7745000560073332e-01 0.0000000000000000e+00  1.1036810251886753e+00 -3.1929638602253628e-03 0.0000000000000000e+00  2.2084654350999560e+00 1.1065530837424815e-01 0.0000000000000000e+00  1.2450383168110035e+00 2.1483553159635951e-01 0.0000000000000000e+00  8.6103775112189929e-01 1.9997948862423107e-02 0.0000000000000000e+00  9.3665265671678388e-01 -9.9115216950981695e-03 0.0000000000000000e+00  1.0327670413349290e+00 -2.9002299923103804e-03 0.0000000000000000e+00  7.4951239519549484e-01 1.0924378894710642e-03 0.0000000000000000e+00  1.0964660219709101e+00 5.5261919468510470e-04 0.0000000000000000e+00  2.2514631434176477e+00 4.5600920481427515e-01 0.0000000000000000e+00  -1.2184043056455052e+00 -7.0221424861991022e-01 0.0000000000000000e+00  1.1316570234767076e+00 4.1739793073991742e-03 0.0000000000000000e+00  1.0406186313115051e+00 1.3310418888226680e-06 0.0000000000000000e+00  1.2977193847378741e+00 4.7540521476425346e-01 0.0000000000000000e+00  1.1042630951932026e+00 -1.7443278109478209e-04 0.0000000000000000e+00  1.0949676929066001e+00 1.8703001691081440e-03 0.0000000000000000e+00  1.1047030819338031e+00 -1.5980062629466515e-01 0.0000000000000000e+00  1.1466586843141582e+00 -1.9101017695031353e-02 0.0000000000000000e+00  1.1134509928422898e+00 -1.8814364165552891e-02 0.0000000000000000e+00  1.1086642937504652e+00 -2.0453567005340342e-02 0.0000000000000000e+00  1.0763350342018905e+00 -2.8093836578277557e-03 0.0000000000000000e+00  1.0765027054064040e+00 -1.3091074928856569e-03 0.0000000000000000e+00  1.0707025933433303e+00 2.9871137313619792e-03 0.0000000000000000e+00  1.1048682137393600e+00 -8.7983515727870810e-03 0.0000000000000000e+00  1.1321053103663656e+00 1.9435174270470740e-01 0.0000000000000000e+00  1.0821101406881548e+00 4.8622193280969733e-03 0.0000000000000000e+00  6.5625009070065710e-01 0.0000000000000000e+00 0.0000000000000000e+00  8.5765352902875602e-01 -1.1258370351869620e-02 0.0000000000000000e+00  1.0749835185554004e+00 7.4591281333031331e-04 0.0000000000000000e+00  4.4933256367473390e-01 1.8892340847648161e-02 0.0000000000000000e+00  1.0734010611905513e+00 -1.2815079283030888e-03 0.0000000000000000e+00  1.0856274952702700e+00 4.3116179232862437e-03 0.0000000000000000e+00  1.0934058719961106e+00 5.8083119937906801e-05 0.0000000000000000e+00  1.0851053725065016e+00 -2.9787752851371243e-03 0.0000000000000000e+00  1.1057603425210738e+00 -9.3941038730462403e-03 0.0000000000000000e+00  1.0974247028537418e+00 7.8156205898214151e-04 0.0000000000000000e+00  1.1305303080241846e+00 5.2463232110985314e-01 0.0000000000000000e+00  1.2659246333367091e+00 1.1848272224903016e-01 0.0000000000000000e+00  1.0879377115365940e+00 -2.4963320341505365e-03 0.0000000000000000e+00  2.0610293502382668e+00 1.0119666182137785e+00 0.0000000000000000e+00  1.3806718830612443e+00 2.0186229894462246e-01 0.0000000000000000e+00  7.9848097965473941e-01 3.5655011079113158e-01 0.0000000000000000e+00  7.6091554923195637e-01 1.7301197620932909e-01 0.0000000000000000e+00  4.1778077738450742e-01 3.8168535649622715e-01 0.0000000000000000e+00  1.0956626808140240e+00 2.5963663110209695e-03 0.0000000000000000e+00  1.0851773161259073e+00 -4.7452278277103684e-03 0.0000000000000000e+00  1.8846600935995030e+00 -5.9046955414052926e-01 0.0000000000000000e+00  2.0635493885612377e-01 1.4849018406161940e-01 0.0000000000000000e+00  1.0932188713851985e+00 3.2473946761157522e-04 0.0000000000000000e+00  1.4509475921078989e+00 -1.1359999183882684e-02 0.0000000000000000e+00  1.0914254362277147e+00 -4.9517013924294201e-04 0.0000000000000000e+00  1.0957998994768532e+00 5.8784006867922997e-05 0.0000000000000000e+00  1.0966163388859531e+00 -2.0359478140863528e-03 0.0000000000000000e+00  1.0791780735889027e+00 -4.4430188426176291e-04 0.0000000000000000e+00  1.1055532920673670e+00 -4.4699634833128636e-04 0.0000000000000000e+00  1.0947118884043281e+00 -8.7200140009438699e-03 0.0000000000000000e+00  1.0934315987041496e+00 -1.6666822707738862e-03 0.0000000000000000e+00  1.1007050903420730e+00 1.5835308194478959e-03 0.0000000000000000e+00  1.0990734608748931e+00 -3.3247226558536748e-03 0.0000000000000000e+00  1.1020856376198740e+00 -4.1473366865544853e-04 0.0000000000000000e+00  1.1020835969345999e+00 9.9299565888010780e-04 0.0000000000000000e+00  1.0884703351413443e+00 -1.8237098940295758e-02 0.0000000000000000e+00  1.0617545491845066e+00 -1.2559406992533498e-01 0.0000000000000000e+00  1.0654462787500827e+00 7.5286143768724953e-03 0.0000000000000000e+00  1.0672772734290223e+00 -1.5289995730046015e-03 0.0000000000000000e+00  8.1926587588382160e-01 -1.1403339544720975e-01 0.0000000000000000e+00  1.0414014935470861e+00 -8.1298481919911444e-02 0.0000000000000000e+00  1.0744970170514141e+00 -3.9527089967462015e-02 0.0000000000000000e+00  1.0963157854490977e+00 -9.6271586252599122e-04 0.0000000000000000e+00  1.0669211924900606e+00 -3.5739188243039829e-03 0.0000000000000000e+00  1.1010092439764474e+00 2.3490339116631035e-03 0.0000000000000000e+00  1.0588228361416330e+00 -1.7021133104989914e-03 0.0000000000000000e+00  1.0852446872602914e+00 5.0216951133249064e-03 0.0000000000000000e+00  1.0665123178037232e+00 -4.8545708316129008e-03 0.0000000000000000e+00  9.5862874636273987e-01 -2.3632774070082664e-02 0.0000000000000000e+00  1.0177671844771785e+00 -7.4406711874226671e-03 0.0000000000000000e+00  5.9066935506094442e-01 -3.0823305571326404e-01 0.0000000000000000e+00  1.0732426543577023e+00 3.6004861533096594e-04 0.0000000000000000e+00  1.1689703136945078e+00 -3.2458668204373808e-01 0.0000000000000000e+00  9.8708086840888642e-01 -1.3280328891164041e-02 0.0000000000000000e+00  1.0704235669961719e+00 1.6809795913117351e-02 0.0000000000000000e+00  1.0977460983764762e+00 -7.6774357595378010e