<?xml version="1.0"?>
<VTKFile type="UnstructuredGrid"  version="0.1"  >
<UnstructuredGrid>
<Piece  NumberOfPoints="4269" NumberOfCells="8234">
<Points>
<DataArray  type="Float64"  NumberOfComponents="3"  format="ascii">0 1 0  0 0 0  7.5 0 0  7.5 1 0  1.197537668119028 0.5812868930080463 0  1.2 0.55 0  1.197537668119028 0.5187131069919538 0  1.190211303259031 0.4881966011250105 0  1.178201304837674 0.4592019000520907 0  1.161803398874989 0.4324429495415054 0  1.141421356237309 0.4085786437626905 0  1.117557050458495 0.3881966011250105 0  1.090798099947909 0.3717986951623264 0  1.06180339887499 0.3597886967409693 0  1.031286893008046 0.3524623318809725 0  1 0.35 0  0.9687131069919538 0.3524623318809725 0  0.9381966011250105 0.3597886967409694 0  0.9092019000520906 0.3717986951623264 0  0.8824429495415054 0.3881966011250105 0  0.8585786437626904 0.4085786437626905 0  0.8381966011250105 0.4324429495415054 0  0.8217986951623264 0.4592019000520907 0  0.8097886967409692 0.4881966011250107 0  0.8024623318809725 0.5187131069919539 0  0.8 0.55 0  0.8024623318809725 0.5812868930080463 0  0.8097886967409693 0.6118033988749896 0  0.8217986951623264 0.6407980999479095 0  0.8381966011250105 0.6675570504584947 0  0.8585786437626906 0.6914213562373096 0  0.8824429495415054 0.7118033988749896 0  0.9092019000520907 0.7282013048376736 0  0.9381966011250106 0.7402113032590307 0  0.9687131069919539 0.7475376681190276 0  1 0.75 0  1.031286893008046 0.7475376681190276 0  1.06180339887499 0.7402113032590307 0  1.090798099947909 0.7282013048376736 0  1.117557050458495 0.7118033988749896 0  1.141421356237309 0.6914213562373095 0  1.161803398874989 0.6675570504584947 0  1.178201304837674 0.6407980999479094 0  1.190211303259031 0.6118033988749896 0  3.75 0 0  3.75 1 0  1.875 0 0  1.875 1 0  0.9375 0 0  0.9375 1 0  1.40625 1 0  5.625 1 0  5.625 0 0  2.8125 1 0  2.8125 0 0  4.6875 0 0  4.6875 1 0  6.5625 0 0  6.5625 1 0  5.15625 0.5 0  4.21875 0.5 0  2.34375 0.5 0  3.28125 0.5 0  6.09375 0.5 0  7.5 0.5 0  6.897916666666666 0.5 0  1.842708333333333 0.5 0  0 0.5 0  0.46875 0 0  5.625 0.5302734375 0  7.03125 0 0  6.09375 1 0  2.8125 0.4697265625 0  3.28125 0 0  2.34375 1 0  2.34375 0 0  3.75 0.4697265625 0  4.21875 0 0  4.21875 1 0  4.6875 0.5302734375 0  3.28125 1 0  5.15625 0 0  6.09375 0 0  5.15625 1 0  0.46875 1 0  1.40625 0 0  7.03125 1 0  0.3954638734376499 0.5975780249976004 0  6.495833333333334 0.4072265624999998 0  5.859375 0.25 0  4.905729166666666 0.26513671875 0  4.453125 0.25 0  3.531770833333333 0.73486328125 0  3.968229166666667 0.73486328125 0  2.594270833333333 0.73486328125 0  3.030729166666667 0.73486328125 0  6.328125 0.75 0  7.198958333333334 0.3125000000000002 0  7.198958333333334 0.6874999999999998 0  5.390625 0.25 0  0 0.25 0  2.109375 0.75 0  2.109375 0.25 0  1.51921323205749 0.3418883887525936 0  1.522346610178253 0.6811769608297746 0  5.375456746419271 0.75 0  4.921875 0.76513671875 0  4.437956746419271 0.75 0  3.984375 0.23486328125 0  3.500456746419271 0.25 0  2.578125 0.23486328125 0  3.046875 0.23486328125 0  5.874543253580729 0.75 0  6.642123189445656 0.6909095493086836 0  6.746354166666666 0.2391688368055553 0  0.3197109619185111 0.2850049285972083 0  6.328125 0 0  0.6313375889370429 0.2351325552547357 0  0 0.75 0  6.252283381534729 0.2693808819694041 0  0.234375 1 0  6.948437500000001 0.7543055555555555 0  0.5934018769555939 0.7694151657947577 0  1.858854166666667 0.75 0  1.858854166666667 0.25 0  1.640625 0 0  2.093229166666667 0.5 0  7.5 0.25 0  3.282227579752604 0.75 0  7.5 0.75 0  1.171875 0 0  1.303539853147731 0.2235426933121065 0  5.148177083333333 0.2575683593749998 0  2.351822916666667 0.742431640625 0  1.640625 1 0  4.202380413457425 0.7645435094236485 0  3.047822985053062 0.4701848030090332 0  2.577177014946938 0.4701848030090332 0  4.672792740482199 0.76513671875 0  4.922822985053062 0.5298151969909668 0  5.390593497949761 0.5156244924311331 0  5.610292740482199 0.76513671875 0  3.516602579752604 0.5 0  4.45496853898097 0.4865915990446593 0  5.85753146101903 0.4865915990446593 0  3.749511210123698 0.23486328125 0  3.983397420247396 0.4999999999999999 0  2.343497975411212 0.2346270081980111 0  4.219002024588788 0.2346270081980111 0  0.703125 0 0  2.8125 0.2343755075688669 0  3.046875 0 0  2.578125 0 0  3.515625 0 0  3.984375 0 0  4.453125 1 0  5.390625 1 0  2.109375 0 0  2.109375 1 0  5.625 0.2921402030705575 0  5.390625 0 0  7.265625 0 0  6.796875 0 0  6.328125 1 0  3.046875 1 0  2.578125 1 0  3.984375 1 0  3.515625 1 0  4.453125 0 0  4.921875 0 0  5.859375 0 0  0.703125 1 0  1.171875 1 0  7.265625 1 0  4.921875 1 0  5.859375 1 0  0.234375 0 0  6.796875 1 0  6.980310975276531 0.2285890127127066 0  5.149170481934885 0.772689292163473 0  3.274170481934884 0.2273107078365268 0  6.101334126790364 0.7722468376159667 0  4.678005340872584 0.3000799877067239 0  2.8125 0.6921051326382495 0  3.75 0.6921051326382495 0  0.3515624999999999 0.8134571721668546 0  0.4990405774417521 0.4070099317153735 0  0.1789273931360182 0.625 0  6.31239060814315 0.5298877111157968 0  6.456979773992304 0.1917956348713352 0  6.699870808919271 0.4406293402777773 0  1.337539480965883 0.7944303676599538 0  6.058675797563041 0.2019812164653516 0  0.8203125 0.1643029084422534 0  0.1480856513011711 0.375 0  1.090769294689562 0.1719186776982972 0  7.291088163206459 0.5 0  7.094502414936563 0.5197902199074071 0  0.6046212059042245 0.5730066483871106 0  1.707231580809486 0.6342709161352207 0  1.685961352504593 0.8193269193390785 0  1.374721602852827 0.4600373025865813 0  6.486415510043844 0.5916440776477192 0  1.5234375 0.1508863828685116 0  1.707925830421689 0.3657739208189008 0  0.1674513225045584 0.8278776664019765 0  7.138268756771176 0.1438183366439137 0  7.1484375 0.8616388888888887 0  7.328562530764119 0.819498462930605 0  4.101073710123698 0.3678637200736647 0  1.693878467219965 0.1911955120941053 0  1.577566745468488 0.5110082404081502 0  6.6796875 0.8653871806883484 0  6.498039504430512 0.825568433346395 0  0.7562556668576472 0.8333197949571929 0  4.101045914668806 0.6255195807449272 0  5.030745188395182 0.382829047309028 0  2.476364945868651 0.6095868094762166 0  2.729359843907322 0.8460525663191247 0  2.9296875 0.8740763101564099 0  3.163518307559356 0.6254622797994247 0  3.666859843907322 0.8460525663191247 0  3.8671875 0.8740763101564099 0  4.8046875 0.12592368984359 0  3.14936031382311 0.8606990583876851 0  2.4609375 0.8747622921397776 0  5.023140791101972 0.1392266772452574 0  0 0.125 0  0.1759922923594607 0.1727589856739889 0  4.5703125 0.125 0  7.327755777818006 0.1766156770456191 0  5.5078125 0.125 0  5.719712725029036 0.1460701015352787 0  4.327848962028002 0.3674169956512513 0  5.982681121544351 0.3692637923021713 0  3.398926289876302 0.6245417594909667 0  5.281756792511996 0.3827993367299961 0  2.226822645963271 0.6252438868405666 0  2.234390064317166 0.8676616584526566 0  5.2734375 0.125 0  1.96796875 0.382568359375 0  2.234651037971999 0.3674169956512511 0  1.984114583333333 0.132568359375 0  1.9921875 0.875 0  1.984114583333333 0.632568359375 0  5.748733794462357 0.8678269127183313 0  3.3984375 0.875456329184688 0  1.512925924995415 0.8582958012121853 0  1.359299372802969 0.6275861864990343 0  4.810521420483513 0.4041767793635395 0  0.2996213306116602 0.455339710363317 0  5.999933717403708 0.6388425470751088 0  5.250033449003657 0.6388713364551682 0  3.631676045992918 0.3525406652400928 0  4.3359375 0.8816499670325881 0  4.343577437052484 0.6116511299909198 0  3.375033449003656 0.3611286635448316 0  5.763152151652243 0.6249404690537395 0  4.549347848347757 0.6249404690537396 0  5.5004588702411 0.6403667365776566 0  5.976118394847484 0.8816230218343086 0  5.054722486865804 0.6338007028640954 0  3.164542163493752 0.3520519332736524 0  2.445407482032355 0.3672168403687257 0  4.8046875 0.882568359375 0  4.1015625 0.117431640625 0  2.4609375 0.117431640625 0  2.695556894938151 0.3520510350344335 0  2.929443105061849 0.3520510350344335 0  3.881979231817319 0.3670559016511187 0  3.8671875 0.117431640625 0  4.805389247695744 0.6470047893641744 0  3.399370721942191 0.1184066543556767 0  5.274370721942192 0.881593345644323 0  3.618253274934649 0.1316869186284249 0  2.6953125 0.1171877537844335 0  2.9296875 0.1171877537844335 0  2.21873344389451 0.125 0  4.3359375 0.1171877625080073 0  0.6659898565672709 0.3986593551313873 0  7.363359022954956 0.3481046411219251 0  7.363359022954956 0.6518953588780749 0  5.487719392831826 0.3828237631077121 0  2.695054578344725 0.5809158475691247 0  2.944553877887707 0.5964065668438148 0  0.3515625 0.1201898858097106 0  5.5078125 1 0  4.5703125 1 0  5.031746201297604 0.882568359375 0  3.1640625 0 0  6.2109375 1 0  6.186845385763124 0.6336356480571081 0  4.1015625 1 0  6.810399074069772 0.6495574751396682 0  0.4740615253480797 0.2509287743856873 0  7.052064303830151 0.3684417917792242 0  6.195177069665382 0.1216488332168849 0  5.72300154718324 0.4112068202852788 0  3.879157465495092 0.6111892850691246 0  3.645760045247695 0.5809158475691247 0  6.868257400485771 0.3427840810237202 0  6.612030892260864 0.1521752713064389 0  6.615666885941117 0.3151079644097221 0  4.04296875 0.8633718902669071 0  1.183031453639096 0.8486801864185936 0  6.9140625 0 0  6.859079526500421 0.1398292786950638 0  6.808232443325651 0.7957411753922057 0  6.9140625 1 0  4.544955211100143 0.3675874343205077 0  1.0546875 1 0  6.122060236165557 0.3316791557072867 0  0.5859375 0 0  5.9765625 0 0  5.44921875 0.870984788733638 0  4.51171875 0.870984788733638 0  0.7608354256382215 0.2931261274224557 0  6.386875332239937 0.3156583003094978 0  6.985654756850997 0.6147408423643147 0  6.223797257919172 0.8535621912121121 0  5.936822413218736 0.1338376546337823 0  6.23933008800134 0.4095573603773768 0  0.5414022462152697 0.1305482677949959 0  6.331360438104348 0.1370086318183389 0  0.956404929269873 0.1374266563647954 0  1.2890625 1 0  0.691305981127761 0.6764829884281737 0  3.531251607241209 0.8678916320952239 0  2.59787442813022 
[...]
<PointData  Vectors="f_71627"> 
<DataArray  type="Float64"  Name="f_71627"  NumberOfComponents="3" format="ascii">0.0000000000000000e+00 0.0000000000000000e+00 0.0000000000000000e+00  0.0000000000000000e+00 0.0000000000000000e+00 0.0000000000000000e+00  0.0000000000000000e+00 0.0000000000000000e+00 0.0000000000000000e+00  0.0000000000000000e+00 0.0000000000000000e+00 0.0000000000000000e+00  0.0000000000000000e+00 0.0000000000000000e+00 0.0000000000000000e+00  0.0000000000000000e+00 0.0000000000000000e+00 0.0000000000000000e+00  0.0000000000000000e+00 0.0000000000000000e+00 0.0000000000000000e+00  0.0000000000000000e+00 0.0000000000000000e+00 0.0000000000000000e+00  0.0000000000000000e+00 0.0000000000000000e+00 0.0000000000000000e+00  0.0000000000000000e+00 0.0000000000000000e+00 0.0000000000000000e+00  0.0000000000000000e+00 0.0000000000000000e+00 0.0000000000000000e+00  0.0000000000000000e+00 0.0000000000000000e+00 0.0000000000000000e+00  0.0000000000000000e+00 0.0000000000000000e+00 0.0000000000000000e+00  0.0000000000000000e+00 0.0000000000000000e+00 0.0000000000000000e+00  0.0000000000000000e+00 0.0000000000000000e+00 0.0000000000000000e+00  0.0000000000000000e+00 0.0000000000000000e+00 0.0000000000000000e+00  0.0000000000000000e+00 0.0000000000000000e+00 0.0000000000000000e+00  0.0000000000000000e+00 0.0000000000000000e+00 0.0000000000000000e+00  0.0000000000000000e+00 0.0000000000000000e+00 0.0000000000000000e+00  0.0000000000000000e+00 0.0000000000000000e+00 0.0000000000000000e+00  0.0000000000000000e+00 0.0000000000000000e+00 0.0000000000000000e+00  0.0000000000000000e+00 0.0000000000000000e+00 0.0000000000000000e+00  0.0000000000000000e+00 0.0000000000000000e+00 0.0000000000000000e+00  0.0000000000000000e+00 0.0000000000000000e+00 0.0000000000000000e+00  0.0000000000000000e+00 0.0000000000000000e+00 0.0000000000000000e+00  0.0000000000000000e+00 0.0000000000000000e+00 0.0000000000000000e+00  0.0000000000000000e+00 0.0000000000000000e+00 0.0000000000000000e+00  0.0000000000000000e+00 0.0000000000000000e+00 0.0000000000000000e+00  0.0000000000000000e+00 0.0000000000000000e+00 0.0000000000000000e+00  0.0000000000000000e+00 0.0000000000000000e+00 0.0000000000000000e+00  0.0000000000000000e+00 0.0000000000000000e+00 0.0000000000000000e+00  0.0000000000000000e+00 0.0000000000000000e+00 0.0000000000000000e+00  0.0000000000000000e+00 0.0000000000000000e+00 0.0000000000000000e+00  0.0000000000000000e+00 0.0000000000000000e+00 0.0000000000000000e+00  0.0000000000000000e+00 0.0000000000000000e+00 0.0000000000000000e+00  0.0000000000000000e+00 0.0000000000000000e+00 0.0000000000000000e+00  0.0000000000000000e+00 0.0000000000000000e+00 0.0000000000000000e+00  0.0000000000000000e+00 0.0000000000000000e+00 0.0000000000000000e+00  0.0000000000000000e+00 0.0000000000000000e+00 0.0000000000000000e+00  0.0000000000000000e+00 0.0000000000000000e+00 0.0000000000000000e+00  0.0000000000000000e+00 0.0000000000000000e+00 0.0000000000000000e+00  0.0000000000000000e+00 0.0000000000000000e+00 0.0000000000000000e+00  0.0000000000000000e+00 0.0000000000000000e+00 0.0000000000000000e+00  0.0000000000000000e+00 0.0000000000000000e+00 0.0000000000000000e+00  0.0000000000000000e+00 0.0000000000000000e+00 0.0000000000000000e+00  0.0000000000000000e+00 0.0000000000000000e+00 0.0000000000000000e+00  0.0000000000000000e+00 0.0000000000000000e+00 0.0000000000000000e+00  0.0000000000000000e+00 0.0000000000000000e+00 0.0000000000000000e+00  0.0000000000000000e+00 0.0000000000000000e+00 0.0000000000000000e+00  0.0000000000000000e+00 0.0000000000000000e+00 0.0000000000000000e+00  0.0000000000000000e+00 0.0000000000000000e+00 0.0000000000000000e+00  0.0000000000000000e+00 0.0000000000000000e+00 0.0000000000000000e+00  0.0000000000000000e+00 0.0000000000000000e+00 0.0000000000000000e+00  0.0000000000000000e+00 0.0000000000000000e+00 0.0000000000000000e+00  0.0000000000000000e+00 0.0000000000000000e+00 0.0000000000000000e+00  0.0000000000000000e+00 0.0000000000000000e+00 0.0000000000000000e+00  0.0000000000000000e+00 0.0000000000000000e+00 0.0000000000000000e+00  0.0000000000000000e+00 0.0000000000000000e+00 0.0000000000000000e+00  0.0000000000000000e+00 0.0000000000000000e+00 0.0000000000000000e+00  1.0651332759221195e+00 -4.8001095871569952e-03 0.0000000000000000e+00  1.0570443883077036e+00 -7.2545133389755262e-04 0.0000000000000000e+00  1.0632627931429446e+00 6.4996659901475481e-03 0.0000000000000000e+00  1.0622268332952891e+00 -2.6732622679259345e-03 0.0000000000000000e+00  1.0491871091681522e+00 6.5744409368944995e-03 0.0000000000000000e+00  1.5000002114113182e+00 0.0000000000000000e+00 0.0000000000000000e+00  1.1489875327573136e+00 -7.5308734951878061e-03 0.0000000000000000e+00  1.0134290461061983e+00 3.9051358764618536e-02 0.0000000000000000e+00  1.5000002114113182e+00 0.0000000000000000e+00 0.0000000000000000e+00  0.0000000000000000e+00 0.0000000000000000e+00 0.0000000000000000e+00  1.0639546419141939e+00 -5.3682299168018631e-03 0.0000000000000000e+00  0.0000000000000000e+00 0.0000000000000000e+00 0.0000000000000000e+00  0.0000000000000000e+00 0.0000000000000000e+00 0.0000000000000000e+00  1.0664239320889493e+00 7.2761097669234403e-04 0.0000000000000000e+00  0.0000000000000000e+00 0.0000000000000000e+00 0.0000000000000000e+00  0.0000000000000000e+00 0.0000000000000000e+00 0.0000000000000000e+00  0.0000000000000000e+00 0.0000000000000000e+00 0.0000000000000000e+00  1.0653338507551771e+00 2.2284209155608099e-03 0.0000000000000000e+00  0.0000000000000000e+00 0.0000000000000000e+00 0.0000000000000000e+00  0.0000000000000000e+00 0.0000000000000000e+00 0.0000000000000000e+00  1.0700374313422274e+00 -1.0070512437510386e-02 0.0000000000000000e+00  0.0000000000000000e+00 0.0000000000000000e+00 0.0000000000000000e+00  0.0000000000000000e+00 0.0000000000000000e+00 0.0000000000000000e+00  0.0000000000000000e+00 0.0000000000000000e+00 0.0000000000000000e+00  0.0000000000000000e+00 0.0000000000000000e+00 0.0000000000000000e+00  0.0000000000000000e+00 0.0000000000000000e+00 0.0000000000000000e+00  0.0000000000000000e+00 0.0000000000000000e+00 0.0000000000000000e+00  0.0000000000000000e+00 0.0000000000000000e+00 0.0000000000000000e+00  1.3719306519775698e+00 -2.4353466703966424e-02 0.0000000000000000e+00  1.1138383173428161e+00 -4.0186623005825069e-03 0.0000000000000000e+00  1.0829603920548025e+00 -1.5213913088964169e-03 0.0000000000000000e+00  1.0512638944618653e+00 -6.0222820836791759e-03 0.0000000000000000e+00  1.0646407245775222e+00 1.1875124549899335e-02 0.0000000000000000e+00  1.0468908506667696e+00 -1.1355007291089311e-02 0.0000000000000000e+00  1.0741806023028873e+00 2.1020226382710006e-03 0.0000000000000000e+00  1.0625764674152360e+00 1.4731118679518472e-04 0.0000000000000000e+00  1.0665342351739171e+00 -6.1845143235873974e-04 0.0000000000000000e+00  1.0796638152693241e+00 4.7569091831431553e-03 0.0000000000000000e+00  7.2152654152288120e-01 -6.4825920338934546e-03 0.0000000000000000e+00  9.2971150894293531e-01 1.4119309706411698e-02 0.0000000000000000e+00  1.0555354734234799e+00 -1.1162984024499815e-03 0.0000000000000000e+00  1.1250001585584886e+00 0.0000000000000000e+00 0.0000000000000000e+00  1.0577545421506775e+00 6.2917029539087408e-03 0.0000000000000000e+00  1.0764764196514944e+00 1.1133892831497448e-02 0.0000000000000000e+00  1.2726312452884498e+00 6.5226994692852291e-01 0.0000000000000000e+00  9.2821822431772338e-01 -8.8288090836658506e-01 0.0000000000000000e+00  1.0537193810957897e+00 3.6128485643613954e-03 0.0000000000000000e+00  1.0842677571094050e+00 -1.2091190244127399e-02 0.0000000000000000e+00  1.0861305065661795e+00 8.8697300658818982e-03 0.0000000000000000e+00  1.0497599114073271e+00 -1.4555039937620778e-02 0.0000000000000000e+00  1.0613219340017930e+00 -1.6323422047530309e-03 0.0000000000000000e+00  1.0674145970687841e+00 5.3464566446140161e-03 0.0000000000000000e+00  1.0674754858423767e+00 -2.4519006728458701e-03 0.0000000000000000e+00  1.0855140639265850e+00 5.5257862892583347e-03 0.0000000000000000e+00  1.0492844661257748e+00 4.3142054503315297e-03 0.0000000000000000e+00  1.1014468236999471e+00 -1.3420380321308885e-02 0.0000000000000000e+00  1.2302635392185171e+00 -7.5402459313896567e-02 0.0000000000000000e+00  0.0000000000000000e+00 0.0000000000000000e+00 0.0000000000000000e+00  1.2439175509250615e+00 -3.1627260697870507e-01 0.0000000000000000e+00  1.1250001585584886e+00 0.0000000000000000e+00 0.0000000000000000e+00  1.0992420028959109e+00 -3.3202619213657599e-03 0.0000000000000000e+00  0.0000000000000000e+00 0.0000000000000000e+00 0.0000000000000000e+00  1.2730881417171425e+00 1.7451251229651001e-03 0.0000000000000000e+00  1.0627622115050788e+00 2.2425981762159922e-01 0.0000000000000000e+00  1.0758567609077510e+00 -1.5698733828465160e-02 0.0000000000000000e+00  1.1215935765443397e+00 5.2621498284298691e-02 0.0000000000000000e+00  0.0000000000000000e+00 0.0000000000000000e+00 0.0000000000000000e+00  1.0592689640920561e+00 1.4587157619059469e-02 0.0000000000000000e+00  1.1250001585584886e+00 0.0000000000000000e+00 0.0000000000000000e+00  1.0496199666388202e+00 2.3600528451436008e-04 0.0000000000000000e+00  1.1250001585584886e+00 0.0000000000000000e+00 0.0000000000000000e+00  0.0000000000000000e+00 0.0000000000000000e+00 0.0000000000000000e+00  1.9066848503148071e+00 2.7110864897635401e-01 0.0000000000000000e+00  1.0745899146915359e+00 -5.5903630450828213e-03 0.0000000000000000e+00  1.0594624149305243e+00 4.3973858137891586e-03 0.0000000000000000e+00  0.0000000000000000e+00 0.0000000000000000e+00 0.0000000000000000e+00  1.0679852802642686e+00 1.6380239395540824e-02 0.0000000000000000e+00  1.0660140561153295e+00 -9.7439629129130432e-04 0.0000000000000000e+00  1.0649046007121568e+00 3.1718451145387933e-03 0.0000000000000000e+00  1.0959715233643617e+00 1.2070356566728861e-02 0.0000000000000000e+00  1.0627192771850973e+00 -1.8116391975597070e-03 0.0000000000000000e+00  1.0626349205117791e+00 3.6199609450754539e-03 0.0000000000000000e+00  1.0386601514665843e+00 -2.2789801500740312e-02 0.0000000000000000e+00  1.0727871693401143e+00 1.5424445284644129e-03 0.0000000000000000e+00  1.0621454177800487e+00 1.5599092132420973e-03 0.0000000000000000e+00  1.0642234288699273e+00 5.0727867147477984e-03 0.0000000000000000e+00  1.0680879234848470e+00 -2.9807556831437784e-03 0.0000000000000000e+00  1.0601586746026270e+00 6.5725921561495884e-03 0.0000000000000000e+00  1.0665133909546005e+00 4.4335921988681087e-03 0.0000000000000000e+00  1.0660196382767284e+00 -6.4618199934614821e-03 0.0000000000000000e+00  0.0000000000000000e+00 0.0000000000000000e+00 0.0000000000000000e+00  1.0692007145936828e+00 1.0255815968595616e-03 0.0000000000000000e+00  0.0000000000000000e+00 0.0000000000000000e+00 0.0000000000000000e+00  0.0000000000000000e+00 0.0000000000000000e+00 0.0000000000000000e+00  0.0000000000000000e+00 0.0000000000000000e+00 0.0000000000000000e+00  0.0000000000000000e+00 0.0000000000000000e+00 0.0000000000000000e+00  0.0000000000000000e+00 0.0000000000000000e+00 0.0000000000000000e+00  0.0000000000000000e+00 0.0000000000000000e+00 0.0000000000000000e+00  0.0000000000000000e+00 0.0000000000000000e+00 0.0000000000000000e+00  0.0000000000000000e+00 0.0000000000000000e+00 0.0000000000000000e+00  1.0249951578138972e+00 -1.7587921046284770e-03 0.0000000000000000e+00  0.0000000000000000e+00 0.0000000000000000e+00 0.0000000000000000e+00  0.0000000000000000e+00 0.0000000000000000e+00 0.0000000000000000e+00  0.0000000000000000e+00 0.0000000000000000e+00 0.0000000000000000e+00  0.0000000000000000e+00 0.0000000000000000e+00 0.0000000000000000e+00  0.0000000000000000e+00 0.0000000000000000e+00 0.0000000000000000e+00  0.0000000000000000e+00 0.0000000000000000e+00 0.0000000000000000e+00  0.0000000000000000e+00 0.0000000000000000e+00 0.0000000000000000e+00  0.0000000000000000e+00 0.0000000000000000e+00 0.0000000000000000e+00  0.0000000000000000e+00 0.0000000000000000e+00 0.0000000000000000e+00  0.0000000000000000e+00 0.0000000000000000e+00 0.0000000000000000e+00  0.0000000000000000e+00 0.0000000000000000e+00 0.0000000000000000e+00  0.0000000000000000e+00 0.0000000000000000e+00 0.0000000000000000e+00  0.0000000000000000e+00 0.0000000000000000e+00 0.0000000000000000e+00  0.0000000000000000e+00 0.0000000000000000e+00 0.0000000000000000e+00  0.0000000000000000e+00 0.0000000000000000e+00 0.0000000000000000e+00  0.0000000000000000e+00 0.0000000000000000e+00 0.0000000000000000e+00  0.0000000000000000e+00 0.0000000000000000e+00 0.0000000000000000e+00  0.0000000000000000e+00 0.0000000000000000e+00 0.0000000000000000e+00  1.1348904080717506e+00 -2.5146412346140519e-02 0.0000000000000000e+00  1.0665434688241384e+00 1.5368872328320994e-02 0.0000000000000000e+00  1.0642141451286242e+00 -3.1379494886641297e-03 0.0000000000000000e+00  1.0646370424837934e+00 -8.2993637252190989e-03 0.0000000000000000e+00  1.0464339987787621e+00 1.3007846062740030e-02 0.0000000000000000e+00  1.0655643056847144e+00 -7.3553345225530202e-04 0.0000000000000000e+00  1.0639412806039450e+00 -3.3432056011094028e-03 0.0000000000000000e+00  9.0878836301282639e-01 2.6862565777489529e-02 0.0000000000000000e+00  1.3572129594709483e+00 -1.6796719844445085e-01 0.0000000000000000e+00  1.3974925557230540e+00 -1.2914572686068349e-02 0.0000000000000000e+00  1.0506760719345842e+00 4.5334394330661474e-03 0.0000000000000000e+00  1.0577317699415325e+00 1.6849780288895760e-02 0.0000000000000000e+00  1.1420528005014903e+00 -6.0487193224526611e-03 0.0000000000000000e+00  2.1082295497197325e+00 -2.4432973181649895e-01 0.0000000000000000e+00  1.0587587214676246e+00 7.7022115380653931e-03 0.0000000000000000e+00  1.3995990369281754e+00 -3.7348427359039732e-01 0.0000000000000000e+00  1.4060080406681923e+00 -2.9969121900522023e-02 0.0000000000000000e+00  1.8834131722441718e+00 -7.7282713863614461e-02 0.0000000000000000e+00  1.3838840925001099e+00 -3.7185076269248211e-02 0.0000000000000000e+00  1.3457149001129565e+00 7.3743807562350622e-03 0.0000000000000000e+00  1.1479132412247783e+00 1.8729144470058086e-02 0.0000000000000000e+00  9.4968647746667745e-01 -1.3197520434164070e-01 0.0000000000000000e+00  1.3140791409084092e+00 -8.6886562025278613e-02 0.0000000000000000e+00  7.0816469395652060e-02 5.0015927334069366e-01 0.0000000000000000e+00  1.0746194591054428e+00 -2.9661050348247049e-03 0.0000000000000000e+00  1.5378041618273273e+00 2.2341337309206202e-01 0.0000000000000000e+00  1.0542187404946681e+00 1.9968133018768119e-01 0.0000000000000000e+00  8.4842326971587811e-01 -6.1533673612102569e-03 0.0000000000000000e+00  9.2222382046374207e-01 -1.7372731222584478e-02 0.0000000000000000e+00  1.0210033934526492e+00 -2.6461744350480480e-02 0.0000000000000000e+00  6.7797063956305292e-01 -3.0288788453688366e-03 0.0000000000000000e+00  1.0554506617278243e+00 -1.5911865041239086e-02 0.0000000000000000e+00  1.2621275059966675e+00 1.1204495516603120e-01 0.0000000000000000e+00  4.9055038226839104e-01 2.4470765953444748e-01 0.0000000000000000e+00  1.0481162033474138e+00 2.1350932347641200e-02 0.0000000000000000e+00  9.6842499287498784e-01 -1.3095079437125508e-02 0.0000000000000000e+00  1.1479433368465990e+00 4.5430889938286628e-01 0.0000000000000000e+00  1.0685098695311102e+00 2.0259104758384838e-03 0.0000000000000000e+00  1.0628028957771853e+00 -1.4184394623824662e-03 0.0000000000000000e+00  1.0620527262603709e+00 3.4489890937449918e-03 0.0000000000000000e+00  1.0532050963882849e+00 -1.9607252686915148e-03 0.0000000000000000e+00  1.0471594343102943e+00 8.5404087322206879e-04 0.0000000000000000e+00  1.0657113877584212e+00 -8.3112698245738428e-04 0.0000000000000000e+00  9.6327631133901537e-01 1.2799433716335739e-03 0.0000000000000000e+00  1.0671566996569875e+00 -5.9709811066228757e-03 0.0000000000000000e+00  1.0283493893045970e+00 -1.0070827880590915e-02 0.0000000000000000e+00  1.0596347568695756e+00 -1.6405785037993119e-04 0.0000000000000000e+00  1.0506798343949391e+00 -1.3738570561415364e-06 0.0000000000000000e+00  1.0265573972943118e+00 1.6265255541381723e-02 0.0000000000000000e+00  6.5625009249245170e-01 0.0000000000000000e+00 0.0000000000000000e+00  8.6301427939980224e-01 -2.6635738471487626e-02 0.0000000000000000e+00  1.0346110598336964e+00 -1.9975239933584198e-02 0.0000000000000000e+00  3.5349699692063674e-01 -1.2825365275431677e-03 0.0000000000000000e+00  1.0830600750211923e+00 3.4535429568281384e-03 0.0000000000000000e+00  1.0134366479029595e+00 7.9381742639733233e-03 0.0000000000000000e+00  1.0666272071830580e+00 -1.2859859984615497e-03 0.0000000000000000e+00  1.0415954409800834e+00 -2.6808717922780385e-04 0.0000000000000000e+00  1.0666416928956053e+00 -4.2292833013905682e-03 0.0000000000000000e+00  1.0674616530165206e+00 -4.3577633577703764e-03 0.0000000000000000e+00  1.0591247092976959e+00 7.6231111320230159e-03 0.0000000000000000e+00  1.0469733195670912e+00 6.1079794186796712e-03 0.0000000000000000e+00  1.0612322994907071e+00 -9.1822580939015085e-03 0.0000000000000000e+00  1.0669405800581719e+00 3.4394117865958064e-02 0.0000000000000000e+00  1.0665174212018425e+00 9.0419534020469601e-03 0.0000000000000000e+00  1.0869345565426309e+00 -2.0331731364529272e-03 0.0000000000000000e+00  1.0505484184395146e+00 -9.1101694746763082e-03 0.0000000000000000e+00  1.0500572468081260e+00 5.8573701851653672e-03 0.0000000000000000e+00  1.0371300966135071e+00 -9.7968121975075461e-05 0.0000000000000000e+00  1.0492669086110458e+00 1.7129304066683337e-03 0.0000000000000000e+00  1.7384746998532949e+00 -4.0468616643778976e-01 0.0000000000000000e+00  -7.0457556786810838e-01 1.0174402987710834e-01 0.0000000000000000e+00  1.0521457863715449e+00 3.1711612875072351e-03 0.0000000000000000e+00  1.4586230464654164e+00 -6.0402245424665033e-02 0.0000000000000000e+00  1.0611681615536777e+00 1.4036342354254178e-02 0.0000000000000000e+00  1.0407639396736408e+00 -3.8143587762681256e-03 0.0000000000000000e+00  1.0686809285573975e+00 8.3248937096264755e-03 0.0000000000000000e+00  1.0628926646650443e+00 1.3921879421649843e-03 0.0000000000000000e+00  1.0612275288628175e+00 3.7383148632748847e-03 0.0000000000000000e+00  1.0685528777539501e+00 -6.1754623489859370e-04 0.0000000000000000e+00  1.0489444610980387e+00 -1.2512450889042511e-02 0.0000000000000000e+00  1.0505544982130610e+00 1.4605690840188144e-02 0.0000000000000000e+00  1.0568992975500533e+00 -2.0063993126232193e-03 0.0000000000000000e+00  1.1114185822328886e+00 1.0775115585798026e-02 0.0000000000000000e+00  1.0610852232087988e+00 -1.1558701042506798e-02 0.0000000000000000e+00  1.0655792358127094e+00 -2.1152363185605186e-03 0.0000000000000000e+00  1.0651846386573378e+00 5.1666539251833130e-03 0.0000000000000000e+00  1.0896805440930177e+00 1.6731475925874213e-02 0.0000000000000000e+00  1.0693818210541228e+00 -6.5842005832845336e-03 0.0000000000000000e+00  1.0180186269281715e+00 1.0016497397484220e-02 0.0000000000000000e+00  1.0672307167844608e+00 2.5566897498017611e-03 0.0000000000000000e+00  1.0675269294826426e+00 -4.6594603576405173e-04 0.0000000000000000e+00  1.0684450624594122e+00 5.6018500990489446e-03 0.0000000000000000e+00  1.0631233497153787e+00 -7.8732720407313928e-03 0.0000000000000000e+00  1.0501071731677314e+00 -3.0971920147136742e-03 0.0000000000000000e+00  1.0636421939698248e+00 2.8509925854771181e-04 0.0000000000000000e+00  1.1159080051587855e+00 1.9375392454450174e-02 0.0000000000000000e+00  1.0446864519231680e+00 5.7496596864971853e-03 0.0000000000000000e+00  1.0505141476512119e+00 1.0178305066490883e-02 0.0000000000000000e+00  1.0603125258810455e+00 -4.1688078583931119e-03 0.0000000000000000e+00  1.0665074112566986e+00 -2.0671893326221704e-03 0.0000000000000000e+00  1.1062717194616749e+00 2.3666953941842733e-02 0.0000000000000000e+00  1.2244742642606048e+00 -4.1976637211411455e-01 0.0000000000000000e+00  9.9858187960097244e-01 -1.4900309855409246e-02 0.0000000000000000e+00  1.0509808522390516e+00 3.7864608954417275e-02 0.0000000000000000e+00  1.0747328568995649e+00 7.4950105835520290e-04 0.0000000000