<?xml version="1.0"?>
<VTKFile type="UnstructuredGrid"  version="0.1"  >
<UnstructuredGrid>
<Piece  NumberOfPoints="4269" NumberOfCells="8234">
<Points>
<DataArray  type="Float64"  NumberOfComponents="3"  format="ascii">0 1 0  0 0 0  7.5 0 0  7.5 1 0  1.197537668119028 0.5812868930080463 0  1.2 0.55 0  1.197537668119028 0.5187131069919538 0  1.190211303259031 0.4881966011250105 0  1.178201304837674 0.4592019000520907 0  1.161803398874989 0.4324429495415054 0  1.141421356237309 0.4085786437626905 0  1.117557050458495 0.3881966011250105 0  1.090798099947909 0.3717986951623264 0  1.06180339887499 0.3597886967409693 0  1.031286893008046 0.3524623318809725 0  1 0.35 0  0.9687131069919538 0.3524623318809725 0  0.9381966011250105 0.3597886967409694 0  0.9092019000520906 0.3717986951623264 0  0.8824429495415054 0.3881966011250105 0  0.8585786437626904 0.4085786437626905 0  0.8381966011250105 0.4324429495415054 0  0.8217986951623264 0.4592019000520907 0  0.8097886967409692 0.4881966011250107 0  0.8024623318809725 0.5187131069919539 0  0.8 0.55 0  0.8024623318809725 0.5812868930080463 0  0.8097886967409693 0.6118033988749896 0  0.8217986951623264 0.6407980999479095 0  0.8381966011250105 0.6675570504584947 0  0.8585786437626906 0.6914213562373096 0  0.8824429495415054 0.7118033988749896 0  0.9092019000520907 0.7282013048376736 0  0.9381966011250106 0.7402113032590307 0  0.9687131069919539 0.7475376681190276 0  1 0.75 0  1.031286893008046 0.7475376681190276 0  1.06180339887499 0.7402113032590307 0  1.090798099947909 0.7282013048376736 0  1.117557050458495 0.7118033988749896 0  1.141421356237309 0.6914213562373095 0  1.161803398874989 0.6675570504584947 0  1.178201304837674 0.6407980999479094 0  1.190211303259031 0.6118033988749896 0  3.75 0 0  3.75 1 0  1.875 0 0  1.875 1 0  0.9375 0 0  0.9375 1 0  1.40625 1 0  5.625 1 0  5.625 0 0  2.8125 1 0  2.8125 0 0  4.6875 0 0  4.6875 1 0  6.5625 0 0  6.5625 1 0  5.15625 0.5 0  4.21875 0.5 0  2.34375 0.5 0  3.28125 0.5 0  6.09375 0.5 0  7.5 0.5 0  6.897916666666666 0.5 0  1.842708333333333 0.5 0  0 0.5 0  0.46875 0 0  5.625 0.5302734375 0  7.03125 0 0  6.09375 1 0  2.8125 0.4697265625 0  3.28125 0 0  2.34375 1 0  2.34375 0 0  3.75 0.4697265625 0  4.21875 0 0  4.21875 1 0  4.6875 0.5302734375 0  3.28125 1 0  5.15625 0 0  6.09375 0 0  5.15625 1 0  0.46875 1 0  1.40625 0 0  7.03125 1 0  0.3954638734376499 0.5975780249976004 0  6.495833333333334 0.4072265624999998 0  5.859375 0.25 0  4.905729166666666 0.26513671875 0  4.453125 0.25 0  3.531770833333333 0.73486328125 0  3.968229166666667 0.73486328125 0  2.594270833333333 0.73486328125 0  3.030729166666667 0.73486328125 0  6.328125 0.75 0  7.198958333333334 0.3125000000000002 0  7.198958333333334 0.6874999999999998 0  5.390625 0.25 0  0 0.25 0  2.109375 0.75 0  2.109375 0.25 0  1.51921323205749 0.3418883887525936 0  1.522346610178253 0.6811769608297746 0  5.375456746419271 0.75 0  4.921875 0.76513671875 0  4.437956746419271 0.75 0  3.984375 0.23486328125 0  3.500456746419271 0.25 0  2.578125 0.23486328125 0  3.046875 0.23486328125 0  5.874543253580729 0.75 0  6.642123189445656 0.6909095493086836 0  6.746354166666666 0.2391688368055553 0  0.3197109619185111 0.2850049285972083 0  6.328125 0 0  0.6313375889370429 0.2351325552547357 0  0 0.75 0  6.252283381534729 0.2693808819694041 0  0.234375 1 0  6.948437500000001 0.7543055555555555 0  0.5934018769555939 0.7694151657947577 0  1.858854166666667 0.75 0  1.858854166666667 0.25 0  1.640625 0 0  2.093229166666667 0.5 0  7.5 0.25 0  3.282227579752604 0.75 0  7.5 0.75 0  1.171875 0 0  1.303539853147731 0.2235426933121065 0  5.148177083333333 0.2575683593749998 0  2.351822916666667 0.742431640625 0  1.640625 1 0  4.202380413457425 0.7645435094236485 0  3.047822985053062 0.4701848030090332 0  2.577177014946938 0.4701848030090332 0  4.672792740482199 0.76513671875 0  4.922822985053062 0.5298151969909668 0  5.390593497949761 0.5156244924311331 0  5.610292740482199 0.76513671875 0  3.516602579752604 0.5 0  4.45496853898097 0.4865915990446593 0  5.85753146101903 0.4865915990446593 0  3.749511210123698 0.23486328125 0  3.983397420247396 0.4999999999999999 0  2.343497975411212 0.2346270081980111 0  4.219002024588788 0.2346270081980111 0  0.703125 0 0  2.8125 0.2343755075688669 0  3.046875 0 0  2.578125 0 0  3.515625 0 0  3.984375 0 0  4.453125 1 0  5.390625 1 0  2.109375 0 0  2.109375 1 0  5.625 0.2921402030705575 0  5.390625 0 0  7.265625 0 0  6.796875 0 0  6.328125 1 0  3.046875 1 0  2.578125 1 0  3.984375 1 0  3.515625 1 0  4.453125 0 0  4.921875 0 0  5.859375 0 0  0.703125 1 0  1.171875 1 0  7.265625 1 0  4.921875 1 0  5.859375 1 0  0.234375 0 0  6.796875 1 0  6.980310975276531 0.2285890127127066 0  5.149170481934885 0.772689292163473 0  3.274170481934884 0.2273107078365268 0  6.101334126790364 0.7722468376159667 0  4.678005340872584 0.3000799877067239 0  2.8125 0.6921051326382495 0  3.75 0.6921051326382495 0  0.3515624999999999 0.8134571721668546 0  0.4990405774417521 0.4070099317153735 0  0.1789273931360182 0.625 0  6.31239060814315 0.5298877111157968 0  6.456979773992304 0.1917956348713352 0  6.699870808919271 0.4406293402777773 0  1.337539480965883 0.7944303676599538 0  6.058675797563041 0.2019812164653516 0  0.8203125 0.1643029084422534 0  0.1480856513011711 0.375 0  1.090769294689562 0.1719186776982972 0  7.291088163206459 0.5 0  7.094502414936563 0.5197902199074071 0  0.6046212059042245 0.5730066483871106 0  1.707231580809486 0.6342709161352207 0  1.685961352504593 0.8193269193390785 0  1.374721602852827 0.4600373025865813 0  6.486415510043844 0.5916440776477192 0  1.5234375 0.1508863828685116 0  1.707925830421689 0.3657739208189008 0  0.1674513225045584 0.8278776664019765 0  7.138268756771176 0.1438183366439137 0  7.1484375 0.8616388888888887 0  7.328562530764119 0.819498462930605 0  4.101073710123698 0.3678637200736647 0  1.693878467219965 0.1911955120941053 0  1.577566745468488 0.5110082404081502 0  6.6796875 0.8653871806883484 0  6.498039504430512 0.825568433346395 0  0.7562556668576472 0.8333197949571929 0  4.101045914668806 0.6255195807449272 0  5.030745188395182 0.382829047309028 0  2.476364945868651 0.6095868094762166 0  2.729359843907322 0.8460525663191247 0  2.9296875 0.8740763101564099 0  3.163518307559356 0.6254622797994247 0  3.666859843907322 0.8460525663191247 0  3.8671875 0.8740763101564099 0  4.8046875 0.12592368984359 0  3.14936031382311 0.8606990583876851 0  2.4609375 0.8747622921397776 0  5.023140791101972 0.1392266772452574 0  0 0.125 0  0.1759922923594607 0.1727589856739889 0  4.5703125 0.125 0  7.327755777818006 0.1766156770456191 0  5.5078125 0.125 0  5.719712725029036 0.1460701015352787 0  4.327848962028002 0.3674169956512513 0  5.982681121544351 0.3692637923021713 0  3.398926289876302 0.6245417594909667 0  5.281756792511996 0.3827993367299961 0  2.226822645963271 0.6252438868405666 0  2.234390064317166 0.8676616584526566 0  5.2734375 0.125 0  1.96796875 0.382568359375 0  2.234651037971999 0.3674169956512511 0  1.984114583333333 0.132568359375 0  1.9921875 0.875 0  1.984114583333333 0.632568359375 0  5.748733794462357 0.8678269127183313 0  3.3984375 0.875456329184688 0  1.512925924995415 0.8582958012121853 0  1.359299372802969 0.6275861864990343 0  4.810521420483513 0.4041767793635395 0  0.2996213306116602 0.455339710363317 0  5.999933717403708 0.6388425470751088 0  5.250033449003657 0.6388713364551682 0  3.631676045992918 0.3525406652400928 0  4.3359375 0.8816499670325881 0  4.343577437052484 0.6116511299909198 0  3.375033449003656 0.3611286635448316 0  5.763152151652243 0.6249404690537395 0  4.549347848347757 0.6249404690537396 0  5.5004588702411 0.6403667365776566 0  5.976118394847484 0.8816230218343086 0  5.054722486865804 0.6338007028640954 0  3.164542163493752 0.3520519332736524 0  2.445407482032355 0.3672168403687257 0  4.8046875 0.882568359375 0  4.1015625 0.117431640625 0  2.4609375 0.117431640625 0  2.695556894938151 0.3520510350344335 0  2.929443105061849 0.3520510350344335 0  3.881979231817319 0.3670559016511187 0  3.8671875 0.117431640625 0  4.805389247695744 0.6470047893641744 0  3.399370721942191 0.1184066543556767 0  5.274370721942192 0.881593345644323 0  3.618253274934649 0.1316869186284249 0  2.6953125 0.1171877537844335 0  2.9296875 0.1171877537844335 0  2.21873344389451 0.125 0  4.3359375 0.1171877625080073 0  0.6659898565672709 0.3986593551313873 0  7.363359022954956 0.3481046411219251 0  7.363359022954956 0.6518953588780749 0  5.487719392831826 0.3828237631077121 0  2.695054578344725 0.5809158475691247 0  2.944553877887707 0.5964065668438148 0  0.3515625 0.1201898858097106 0  5.5078125 1 0  4.5703125 1 0  5.031746201297604 0.882568359375 0  3.1640625 0 0  6.2109375 1 0  6.186845385763124 0.6336356480571081 0  4.1015625 1 0  6.810399074069772 0.6495574751396682 0  0.4740615253480797 0.2509287743856873 0  7.052064303830151 0.3684417917792242 0  6.195177069665382 0.1216488332168849 0  5.72300154718324 0.4112068202852788 0  3.879157465495092 0.6111892850691246 0  3.645760045247695 0.5809158475691247 0  6.868257400485771 0.3427840810237202 0  6.612030892260864 0.1521752713064389 0  6.615666885941117 0.3151079644097221 0  4.04296875 0.8633718902669071 0  1.183031453639096 0.8486801864185936 0  6.9140625 0 0  6.859079526500421 0.1398292786950638 0  6.808232443325651 0.7957411753922057 0  6.9140625 1 0  4.544955211100143 0.3675874343205077 0  1.0546875 1 0  6.122060236165557 0.3316791557072867 0  0.5859375 0 0  5.9765625 0 0  5.44921875 0.870984788733638 0  4.51171875 0.870984788733638 0  0.7608354256382215 0.2931261274224557 0  6.386875332239937 0.3156583003094978 0  6.985654756850997 0.6147408423643147 0  6.223797257919172 0.8535621912121121 0  5.936822413218736 0.1338376546337823 0  6.23933008800134 0.4095573603773768 0  0.5414022462152697 0.1305482677949959 0  6.331360438104348 0.1370086318183389 0  0.956404929269873 0.1374266563647954 0  1.2890625 1 0  0.691305981127761 0.6764829884281737 0  3.531251607241209 0.8678916320952239 0  2.59787442813022 
[...]
<PointData  Vectors="f_71627"> 
<DataArray  type="Float64"  Name="f_71627"  NumberOfComponents="3" format="ascii">0.0000000000000000e+00 0.0000000000000000e+00 0.0000000000000000e+00  0.0000000000000000e+00 0.0000000000000000e+00 0.0000000000000000e+00  0.0000000000000000e+00 0.0000000000000000e+00 0.0000000000000000e+00  0.0000000000000000e+00 0.0000000000000000e+00 0.0000000000000000e+00  0.0000000000000000e+00 0.0000000000000000e+00 0.0000000000000000e+00  0.0000000000000000e+00 0.0000000000000000e+00 0.0000000000000000e+00  0.0000000000000000e+00 0.0000000000000000e+00 0.0000000000000000e+00  0.0000000000000000e+00 0.0000000000000000e+00 0.0000000000000000e+00  0.0000000000000000e+00 0.0000000000000000e+00 0.0000000000000000e+00  0.0000000000000000e+00 0.0000000000000000e+00 0.0000000000000000e+00  0.0000000000000000e+00 0.0000000000000000e+00 0.0000000000000000e+00  0.0000000000000000e+00 0.0000000000000000e+00 0.0000000000000000e+00  0.0000000000000000e+00 0.0000000000000000e+00 0.0000000000000000e+00  0.0000000000000000e+00 0.0000000000000000e+00 0.0000000000000000e+00  0.0000000000000000e+00 0.0000000000000000e+00 0.0000000000000000e+00  0.0000000000000000e+00 0.0000000000000000e+00 0.0000000000000000e+00  0.0000000000000000e+00 0.0000000000000000e+00 0.0000000000000000e+00  0.0000000000000000e+00 0.0000000000000000e+00 0.0000000000000000e+00  0.0000000000000000e+00 0.0000000000000000e+00 0.0000000000000000e+00  0.0000000000000000e+00 0.0000000000000000e+00 0.0000000000000000e+00  0.0000000000000000e+00 0.0000000000000000e+00 0.0000000000000000e+00  0.0000000000000000e+00 0.0000000000000000e+00 0.0000000000000000e+00  0.0000000000000000e+00 0.0000000000000000e+00 0.0000000000000000e+00  0.0000000000000000e+00 0.0000000000000000e+00 0.0000000000000000e+00  0.0000000000000000e+00 0.0000000000000000e+00 0.0000000000000000e+00  0.0000000000000000e+00 0.0000000000000000e+00 0.0000000000000000e+00  0.0000000000000000e+00 0.0000000000000000e+00 0.0000000000000000e+00  0.0000000000000000e+00 0.0000000000000000e+00 0.0000000000000000e+00  0.0000000000000000e+00 0.0000000000000000e+00 0.0000000000000000e+00  0.0000000000000000e+00 0.0000000000000000e+00 0.0000000000000000e+00  0.0000000000000000e+00 0.0000000000000000e+00 0.0000000000000000e+00  0.0000000000000000e+00 0.0000000000000000e+00 0.0000000000000000e+00  0.0000000000000000e+00 0.0000000000000000e+00 0.0000000000000000e+00  0.0000000000000000e+00 0.0000000000000000e+00 0.0000000000000000e+00  0.0000000000000000e+00 0.0000000000000000e+00 0.0000000000000000e+00  0.0000000000000000e+00 0.0000000000000000e+00 0.0000000000000000e+00  0.0000000000000000e+00 0.0000000000000000e+00 0.0000000000000000e+00  0.0000000000000000e+00 0.0000000000000000e+00 0.0000000000000000e+00  0.0000000000000000e+00 0.0000000000000000e+00 0.0000000000000000e+00  0.0000000000000000e+00 0.0000000000000000e+00 0.0000000000000000e+00  0.0000000000000000e+00 0.0000000000000000e+00 0.0000000000000000e+00  0.0000000000000000e+00 0.0000000000000000e+00 0.0000000000000000e+00  0.0000000000000000e+00 0.0000000000000000e+00 0.0000000000000000e+00  0.0000000000000000e+00 0.0000000000000000e+00 0.0000000000000000e+00  0.0000000000000000e+00 0.0000000000000000e+00 0.0000000000000000e+00  0.0000000000000000e+00 0.0000000000000000e+00 0.0000000000000000e+00  0.0000000000000000e+00 0.0000000000000000e+00 0.0000000000000000e+00  0.0000000000000000e+00 0.0000000000000000e+00 0.0000000000000000e+00  0.0000000000000000e+00 0.0000000000000000e+00 0.0000000000000000e+00  0.0000000000000000e+00 0.0000000000000000e+00 0.0000000000000000e+00  0.0000000000000000e+00 0.0000000000000000e+00 0.0000000000000000e+00  0.0000000000000000e+00 0.0000000000000000e+00 0.0000000000000000e+00  0.0000000000000000e+00 0.0000000000000000e+00 0.0000000000000000e+00  0.0000000000000000e+00 0.0000000000000000e+00 0.0000000000000000e+00  0.0000000000000000e+00 0.0000000000000000e+00 0.0000000000000000e+00  0.0000000000000000e+00 0.0000000000000000e+00 0.0000000000000000e+00  0.0000000000000000e+00 0.0000000000000000e+00 0.0000000000000000e+00  0.0000000000000000e+00 0.0000000000000000e+00 0.0000000000000000e+00  0.0000000000000000e+00 0.0000000000000000e+00 0.0000000000000000e+00  1.0748508087498236e+00 -1.4830388181171577e-03 0.0000000000000000e+00  1.0785394617139081e+00 -4.2804936774983688e-04 0.0000000000000000e+00  1.0847304252151875e+00 4.9784867672420623e-03 0.0000000000000000e+00  1.0761232753351331e+00 -1.8032171118883189e-03 0.0000000000000000e+00  1.0765943779730405e+00 -1.6326456319916737e-03 0.0000000000000000e+00  1.5000002052968511e+00 0.0000000000000000e+00 0.0000000000000000e+00  1.1665326654282713e+00 -8.0524933585350879e-03 0.0000000000000000e+00  8.7812093689694481e-01 7.7854418697847760e-02 0.0000000000000000e+00  1.5000002052968511e+00 0.0000000000000000e+00 0.0000000000000000e+00  0.0000000000000000e+00 0.0000000000000000e+00 0.0000000000000000e+00  1.0722080871923345e+00 -3.6070325837069483e-04 0.0000000000000000e+00  0.0000000000000000e+00 0.0000000000000000e+00 0.0000000000000000e+00  0.0000000000000000e+00 0.0000000000000000e+00 0.0000000000000000e+00  1.0793931929415888e+00 7.2144997169029082e-04 0.0000000000000000e+00  0.0000000000000000e+00 0.0000000000000000e+00 0.0000000000000000e+00  0.0000000000000000e+00 0.0000000000000000e+00 0.0000000000000000e+00  0.0000000000000000e+00 0.0000000000000000e+00 0.0000000000000000e+00  1.0756056762072028e+00 1.4265624454434488e-03 0.0000000000000000e+00  0.0000000000000000e+00 0.0000000000000000e+00 0.0000000000000000e+00  0.0000000000000000e+00 0.0000000000000000e+00 0.0000000000000000e+00  1.0814368862386585e+00 -3.2632204268395379e-03 0.0000000000000000e+00  0.0000000000000000e+00 0.0000000000000000e+00 0.0000000000000000e+00  0.0000000000000000e+00 0.0000000000000000e+00 0.0000000000000000e+00  0.0000000000000000e+00 0.0000000000000000e+00 0.0000000000000000e+00  0.0000000000000000e+00 0.0000000000000000e+00 0.0000000000000000e+00  0.0000000000000000e+00 0.0000000000000000e+00 0.0000000000000000e+00  0.0000000000000000e+00 0.0000000000000000e+00 0.0000000000000000e+00  0.0000000000000000e+00 0.0000000000000000e+00 0.0000000000000000e+00  1.3646459121045846e+00 -3.2346214678449933e-02 0.0000000000000000e+00  1.1173231393060015e+00 -3.5574762243549712e-03 0.0000000000000000e+00  1.0815687325222620e+00 2.1935944045788640e-03 0.0000000000000000e+00  1.0647545256374935e+00 -1.6680012738783528e-03 0.0000000000000000e+00  1.0726040059450115e+00 3.6302345886199479e-03 0.0000000000000000e+00  1.0695747568699081e+00 -3.1822900180587020e-03 0.0000000000000000e+00  1.0813104283250077e+00 1.3576577887507236e-03 0.0000000000000000e+00  1.0765008526232349e+00 2.6682622881407541e-03 0.0000000000000000e+00  1.0800693385074707e+00 -1.7464354157903316e-03 0.0000000000000000e+00  1.0783308877632214e+00 1.2262826227039544e-02 0.0000000000000000e+00  7.2676040583533263e-01 5.4702743463601808e-03 0.0000000000000000e+00  9.3631421760826861e-01 1.9826068816728916e-02 0.0000000000000000e+00  1.0717421108488332e+00 -1.5927856972472348e-03 0.0000000000000000e+00  1.1250001539726382e+00 0.0000000000000000e+00 0.0000000000000000e+00  1.1042028506677768e+00 5.0697551933434531e-02 0.0000000000000000e+00  1.1133691503065235e+00 -1.3468267736774991e-02 0.0000000000000000e+00  1.9898493388945919e+00 1.0032348938244950e+00 0.0000000000000000e+00  3.0183854397927806e-01 -2.3161155762212421e-01 0.0000000000000000e+00  1.0802053583666003e+00 -1.4038880281248072e-03 0.0000000000000000e+00  1.0811238433260326e+00 -2.4620268827020011e-04 0.0000000000000000e+00  1.0860072275718111e+00 6.0392024458674901e-03 0.0000000000000000e+00  1.0710734646261093e+00 -5.0230232739629198e-03 0.0000000000000000e+00  1.0765686845970777e+00 -3.8989914203818410e-03 0.0000000000000000e+00  1.0791551121207810e+00 -3.2203382993797367e-06 0.0000000000000000e+00  1.0811210351792520e+00 -3.7922185059471490e-04 0.0000000000000000e+00  1.0822001453970702e+00 4.9032339187824346e-03 0.0000000000000000e+00  1.0611126512169315e+00 -1.1735422247450243e-03 0.0000000000000000e+00  1.0916063128466886e+00 -6.5742715227699667e-03 0.0000000000000000e+00  1.2335402292473394e+00 -8.8171431135081357e-02 0.0000000000000000e+00  0.0000000000000000e+00 0.0000000000000000e+00 0.0000000000000000e+00  1.2607506847610932e+00 -3.1526959304676638e-01 0.0000000000000000e+00  1.1250001539726382e+00 0.0000000000000000e+00 0.0000000000000000e+00  1.1094188511394480e+00 4.9353856120279253e-04 0.0000000000000000e+00  0.0000000000000000e+00 0.0000000000000000e+00 0.0000000000000000e+00  1.2639928570072003e+00 -1.3618761003601973e-02 0.0000000000000000e+00  1.0363932784332384e+00 1.9605116328266436e-01 0.0000000000000000e+00  1.4371416334565192e+00 -1.5945688536573305e-01 0.0000000000000000e+00  1.2728085089402827e+00 1.1682583173778763e-01 0.0000000000000000e+00  0.0000000000000000e+00 0.0000000000000000e+00 0.0000000000000000e+00  1.0879986885454205e+00 6.6464804691132784e-03 0.0000000000000000e+00  1.1250001539726382e+00 0.0000000000000000e+00 0.0000000000000000e+00  1.0687110809985960e+00 -5.0027266543224138e-04 0.0000000000000000e+00  1.1250001539726382e+00 0.0000000000000000e+00 0.0000000000000000e+00  0.0000000000000000e+00 0.0000000000000000e+00 0.0000000000000000e+00  2.2793411165445208e+00 9.7354963869267702e-02 0.0000000000000000e+00  1.0767546835164510e+00 4.8956104229666269e-03 0.0000000000000000e+00  1.0755514760293343e+00 1.3360989932099160e-02 0.0000000000000000e+00  0.0000000000000000e+00 0.0000000000000000e+00 0.0000000000000000e+00  1.0829721133795556e+00 7.1441843827012713e-03 0.0000000000000000e+00  1.0796158317950886e+00 -6.5485169223059752e-04 0.0000000000000000e+00  1.0797270237805630e+00 2.0204733675031512e-03 0.0000000000000000e+00  1.0869845992636167e+00 8.5410518122147408e-03 0.0000000000000000e+00  1.0756192911743385e+00 -2.1432830019404159e-03 0.0000000000000000e+00  1.0708877520651465e+00 -1.0567775204371455e-04 0.0000000000000000e+00  1.0723875695376084e+00 -8.5660178537790824e-04 0.0000000000000000e+00  1.0813769485093656e+00 2.2078814321725248e-03 0.0000000000000000e+00  1.0738994877719290e+00 5.1793786316627597e-04 0.0000000000000000e+00  1.0758443539958795e+00 -3.1194691015802474e-03 0.0000000000000000e+00  1.0762094866231386e+00 -2.4580517966139208e-03 0.0000000000000000e+00  1.0794800332270325e+00 1.6613515390848479e-03 0.0000000000000000e+00  1.0817499827649215e+00 -7.6586255879153289e-03 0.0000000000000000e+00  1.0697716305788554e+00 -2.3180291939893217e-03 0.0000000000000000e+00  0.0000000000000000e+00 0.0000000000000000e+00 0.0000000000000000e+00  1.0794633449858144e+00 1.5924671081296007e-03 0.0000000000000000e+00  0.0000000000000000e+00 0.0000000000000000e+00 0.0000000000000000e+00  0.0000000000000000e+00 0.0000000000000000e+00 0.0000000000000000e+00  0.0000000000000000e+00 0.0000000000000000e+00 0.0000000000000000e+00  0.0000000000000000e+00 0.0000000000000000e+00 0.0000000000000000e+00  0.0000000000000000e+00 0.0000000000000000e+00 0.0000000000000000e+00  0.0000000000000000e+00 0.0000000000000000e+00 0.0000000000000000e+00  0.0000000000000000e+00 0.0000000000000000e+00 0.0000000000000000e+00  0.0000000000000000e+00 0.0000000000000000e+00 0.0000000000000000e+00  1.0567080858129940e+00 -2.1354847856048229e-03 0.0000000000000000e+00  0.0000000000000000e+00 0.0000000000000000e+00 0.0000000000000000e+00  0.0000000000000000e+00 0.0000000000000000e+00 0.0000000000000000e+00  0.0000000000000000e+00 0.0000000000000000e+00 0.0000000000000000e+00  0.0000000000000000e+00 0.0000000000000000e+00 0.0000000000000000e+00  0.0000000000000000e+00 0.0000000000000000e+00 0.0000000000000000e+00  0.0000000000000000e+00 0.0000000000000000e+00 0.0000000000000000e+00  0.0000000000000000e+00 0.0000000000000000e+00 0.0000000000000000e+00  0.0000000000000000e+00 0.0000000000000000e+00 0.0000000000000000e+00  0.0000000000000000e+00 0.0000000000000000e+00 0.0000000000000000e+00  0.0000000000000000e+00 0.0000000000000000e+00 0.0000000000000000e+00  0.0000000000000000e+00 0.0000000000000000e+00 0.0000000000000000e+00  0.0000000000000000e+00 0.0000000000000000e+00 0.0000000000000000e+00  0.0000000000000000e+00 0.0000000000000000e+00 0.0000000000000000e+00  0.0000000000000000e+00 0.0000000000000000e+00 0.0000000000000000e+00  0.0000000000000000e+00 0.0000000000000000e+00 0.0000000000000000e+00  0.0000000000000000e+00 0.0000000000000000e+00 0.0000000000000000e+00  0.0000000000000000e+00 0.0000000000000000e+00 0.0000000000000000e+00  0.0000000000000000e+00 0.0000000000000000e+00 0.0000000000000000e+00  1.1516632644132048e+00 -2.8928586097247177e-03 0.0000000000000000e+00  1.0776747130702575e+00 7.0421512554772504e-03 0.0000000000000000e+00  1.0788215714086520e+00 -2.5022296365954854e-03 0.0000000000000000e+00  1.0822293852402480e+00 -1.3324244116104368e-02 0.0000000000000000e+00  1.0591250569349335e+00 7.1162891320642671e-03 0.0000000000000000e+00  1.0781788107189927e+00 -3.0295047296924479e-04 0.0000000000000000e+00  1.0793974534802946e+00 -2.8268394860673225e-03 0.0000000000000000e+00  9.0514500487228033e-01 1.9801830754377067e-02 0.0000000000000000e+00  1.3576066939947056e+00 -1.8008329666783879e-01 0.0000000000000000e+00  1.3941379276536467e+00 -1.6464662248484849e-02 0.0000000000000000e+00  1.0709023650406071e+00 -1.3555976853136522e-03 0.0000000000000000e+00  1.0704606903600407e+00 1.9482685062315657e-03 0.0000000000000000e+00  1.1519459312395013e+00 -3.7006924737698729e-03 0.0000000000000000e+00  1.9159292581596297e+00 -9.1890694679878815e-02 0.0000000000000000e+00  1.0822093248344526e+00 5.2669610899415201e-03 0.0000000000000000e+00  1.4683312430891331e+00 -3.5168699422657729e-01 0.0000000000000000e+00  1.4047676117600412e+00 -2.9384604246774582e-02 0.0000000000000000e+00  2.0299790182570723e+00 -1.3653685014557154e-01 0.0000000000000000e+00  1.4081227515642361e+00 -1.9887898400052482e-02 0.0000000000000000e+00  1.3563502869798683e+00 5.7659830265012859e-04 0.0000000000000000e+00  1.1469211731246673e+00 -4.4114070420541557e-04 0.0000000000000000e+00  6.1569670870864579e-01 -2.9516518674786324e-01 0.0000000000000000e+00  1.7583863452332633e+00 -4.9046647769847690e-01 0.0000000000000000e+00  3.6407530901789130e-02 -6.2051751769623638e-02 0.0000000000000000e+00  1.0820994176005998e+00 -8.6822365191793294e-04 0.0000000000000000e+00  1.7386343565807361e+00 2.9126604786676907e-01 0.0000000000000000e+00  1.1769679299338360e+00 5.5748703457526250e-01 0.0000000000000000e+00  8.5044922055254257e-01 -2.1255154434526432e-03 0.0000000000000000e+00  9.2762252867544126e-01 -1.1079005297096628e-02 0.0000000000000000e+00  1.0121515776598986e+00 -1.2213848058226329e-03 0.0000000000000000e+00  7.1432825244499809e-01 -2.2174770512602325e-02 0.0000000000000000e+00  1.0744385250408806e+00 -1.5976958961482900e-03 0.0000000000000000e+00  1.5499773183939500e+00 3.0084445510177182e-01 0.0000000000000000e+00  -2.2381526707690194e-01 9.0412052362534101e-01 0.0000000000000000e+00  1.1009242412173799e+00 1.8480326313507808e-02 0.0000000000000000e+00  9.9751609277955955e-01 -6.1641308732477730e-03 0.0000000000000000e+00  1.1286609986574716e+00 4.0222476260496137e-01 0.0000000000000000e+00  1.0825082307191312e+00 7.3108607829962651e-05 0.0000000000000000e+00  1.0751726498124416e+00 -1.1797035193900421e-03 0.0000000000000000e+00  1.0788681322872102e+00 5.1474682873541046e-03 0.0000000000000000e+00  1.0627879697545743e+00 -1.2424246832057554e-03 0.0000000000000000e+00  1.0654093031404501e+00 -3.0269224696984893e-03 0.0000000000000000e+00  1.0799802286969513e+00 -1.2173869023986974e-03 0.0000000000000000e+00  1.0150142358297611e+00 2.9034042990482975e-03 0.0000000000000000e+00  1.0808384033202307e+00 -1.0092144384404957e-02 0.0000000000000000e+00  1.0656987812228902e+00 2.1707483226299572e-03 0.0000000000000000e+00  1.0752728257495252e+00 -1.6443311135778112e-03 0.0000000000000000e+00  1.0631816661926496e+00 5.7246254328168567e-03 0.0000000000000000e+00  1.0537425546723298e+00 1.2243131780383979e-02 0.0000000000000000e+00  6.5625008981737232e-01 0.0000000000000000e+00 0.0000000000000000e+00  8.6571549920945812e-01 -3.0227251664751206e-02 0.0000000000000000e+00  1.0740561585151118e+00 -5.0806193550773484e-03 0.0000000000000000e+00  3.5340171799893683e-01 1.0177470436784223e-02 0.0000000000000000e+00  1.0805180632894276e+00 -7.8319419545777522e-03 0.0000000000000000e+00  1.0552094775726442e+00 2.4181446168707087e-03 0.0000000000000000e+00  1.0744780367303903e+00 -1.2150973637820707e-03 0.0000000000000000e+00  1.0593784352080908e+00 -7.0025645381971476e-03 0.0000000000000000e+00  1.0811626218002892e+00 -1.0238609936613638e-03 0.0000000000000000e+00  1.0745302720460230e+00 -3.1629588335132857e-03 0.0000000000000000e+00  1.0882093246535527e+00 1.3351132920363350e-02 0.0000000000000000e+00  1.0367103732922245e+00 1.8955268004776774e-02 0.0000000000000000e+00  1.0844040439561473e+00 3.4785889623211380e-03 0.0000000000000000e+00  1.0985733085032894e+00 5.8223073670574416e-02 0.0000000000000000e+00  1.0915789761264207e+00 3.6440917263523927e-04 0.0000000000000000e+00  1.1431147479106840e+00 -9.2131770517294168e-02 0.0000000000000000e+00  1.0268163116102182e+00 2.5438112117401945e-01 0.0000000000000000e+00  1.1273575948891437e+00 -4.9542041124523477e-02 0.0000000000000000e+00  1.0956429179304013e+00 -3.2522946877055294e-03 0.0000000000000000e+00  1.0701218006933870e+00 -6.1316877447772596e-05 0.0000000000000000e+00  1.8737810781215583e+00 -3.7689947427291071e-01 0.0000000000000000e+00  -1.1317816481336507e+00 -3.7135874477196358e-02 0.0000000000000000e+00  1.0720721398900479e+00 -1.4029670276988018e-03 0.0000000000000000e+00  1.4581286053888056e+00 -6.8801831782287048e-02 0.0000000000000000e+00  1.0667032786714892e+00 -5.5424595394678467e-03 0.0000000000000000e+00  1.0669328966179190e+00 -7.2371187898951344e-03 0.0000000000000000e+00  1.0768187928673412e+00 2.2845457388956584e-03 0.0000000000000000e+00  1.0829096671195606e+00 5.8013169841722350e-03 0.0000000000000000e+00  1.0820816074659527e+00 1.8369568739050727e-03 0.0000000000000000e+00  1.0806397185242522e+00 -1.2634278280352646e-03 0.0000000000000000e+00  1.0614187134759270e+00 -2.7979777116466805e-03 0.0000000000000000e+00  1.0720942102407309e+00 2.8546488309835576e-03 0.0000000000000000e+00  1.0739992373695517e+00 -4.4454111705674090e-03 0.0000000000000000e+00  1.1402565950794123e+00 -7.3475606118570663e-03 0.0000000000000000e+00  1.0752207995511474e+00 1.6535142783963994e-06 0.0000000000000000e+00  1.0801005953153739e+00 -1.2945695991607884e-03 0.0000000000000000e+00  1.0819644522599952e+00 1.1908336993796523e-04 0.0000000000000000e+00  1.1146702781283846e+00 -4.3344186575564195e-03 0.0000000000000000e+00  1.0880367534026667e+00 3.5596261888786794e-03 0.0000000000000000e+00  1.0547342770862058e+00 2.4031396811658194e-03 0.0000000000000000e+00  1.0794454841547116e+00 1.2128855703924253e-03 0.0000000000000000e+00  1.0800998573651783e+00 4.7076575607754692e-04 0.0000000000000000e+00  1.0759818285473060e+00 1.6796814689008907e-03 0.0000000000000000e+00  1.0910476283747435e+00 4.0682631991876290e-03 0.0000000000000000e+00  1.0663733270955085e+00 4.8400937374868649e-04 0.0000000000000000e+00  1.0690414861226643e+00 -3.6201308318471897e-03 0.0000000000000000e+00  1.1164575540355823e+00 2.0013178766254667e-02 0.0000000000000000e+00  1.0582083934808579e+00 -4.6071305389855776e-03 0.0000000000000000e+00  1.0594686840550285e+00 4.2786818121479308e-03 0.0000000000000000e+00  1.0697035649134812e+00 2.1179810160776866e-03 0.0000000000000000e+00  1.0669746093690597e+00 -2.3209787944223154e-02 0.0000000000000000e+00  1.0834266994890662e+00 1.9324318989644808e-03 0.0000000000000000e+00  1.2367804765871449e+00 -4.3766274977249475e-01 0.0000000000000000e+00  9.8273877986091296e-01 6.5455489666665662e-04 0.0000000000000000e+00  1.0727544083464136e+00 3.3298595032953703e-02 0.0000000000000000e+00  1.0834660604405750e+00 -2.9154016004854901e-03 0.