<?xml version="1.0"?>
<VTKFile type="UnstructuredGrid"  version="0.1"  >
<UnstructuredGrid>
<Piece  NumberOfPoints="4269" NumberOfCells="8234">
<Points>
<DataArray  type="Float64"  NumberOfComponents="3"  format="ascii">0 1 0  0 0 0  7.5 0 0  7.5 1 0  1.197537668119028 0.5812868930080463 0  1.2 0.55 0  1.197537668119028 0.5187131069919538 0  1.190211303259031 0.4881966011250105 0  1.178201304837674 0.4592019000520907 0  1.161803398874989 0.4324429495415054 0  1.141421356237309 0.4085786437626905 0  1.117557050458495 0.3881966011250105 0  1.090798099947909 0.3717986951623264 0  1.06180339887499 0.3597886967409693 0  1.031286893008046 0.3524623318809725 0  1 0.35 0  0.9687131069919538 0.3524623318809725 0  0.9381966011250105 0.3597886967409694 0  0.9092019000520906 0.3717986951623264 0  0.8824429495415054 0.3881966011250105 0  0.8585786437626904 0.4085786437626905 0  0.8381966011250105 0.4324429495415054 0  0.8217986951623264 0.4592019000520907 0  0.8097886967409692 0.4881966011250107 0  0.8024623318809725 0.5187131069919539 0  0.8 0.55 0  0.8024623318809725 0.5812868930080463 0  0.8097886967409693 0.6118033988749896 0  0.8217986951623264 0.6407980999479095 0  0.8381966011250105 0.6675570504584947 0  0.8585786437626906 0.6914213562373096 0  0.8824429495415054 0.7118033988749896 0  0.9092019000520907 0.7282013048376736 0  0.9381966011250106 0.7402113032590307 0  0.9687131069919539 0.7475376681190276 0  1 0.75 0  1.031286893008046 0.7475376681190276 0  1.06180339887499 0.7402113032590307 0  1.090798099947909 0.7282013048376736 0  1.117557050458495 0.7118033988749896 0  1.141421356237309 0.6914213562373095 0  1.161803398874989 0.6675570504584947 0  1.178201304837674 0.6407980999479094 0  1.190211303259031 0.6118033988749896 0  3.75 0 0  3.75 1 0  1.875 0 0  1.875 1 0  0.9375 0 0  0.9375 1 0  1.40625 1 0  5.625 1 0  5.625 0 0  2.8125 1 0  2.8125 0 0  4.6875 0 0  4.6875 1 0  6.5625 0 0  6.5625 1 0  5.15625 0.5 0  4.21875 0.5 0  2.34375 0.5 0  3.28125 0.5 0  6.09375 0.5 0  7.5 0.5 0  6.897916666666666 0.5 0  1.842708333333333 0.5 0  0 0.5 0  0.46875 0 0  5.625 0.5302734375 0  7.03125 0 0  6.09375 1 0  2.8125 0.4697265625 0  3.28125 0 0  2.34375 1 0  2.34375 0 0  3.75 0.4697265625 0  4.21875 0 0  4.21875 1 0  4.6875 0.5302734375 0  3.28125 1 0  5.15625 0 0  6.09375 0 0  5.15625 1 0  0.46875 1 0  1.40625 0 0  7.03125 1 0  0.3954638734376499 0.5975780249976004 0  6.495833333333334 0.4072265624999998 0  5.859375 0.25 0  4.905729166666666 0.26513671875 0  4.453125 0.25 0  3.531770833333333 0.73486328125 0  3.968229166666667 0.73486328125 0  2.594270833333333 0.73486328125 0  3.030729166666667 0.73486328125 0  6.328125 0.75 0  7.198958333333334 0.3125000000000002 0  7.198958333333334 0.6874999999999998 0  5.390625 0.25 0  0 0.25 0  2.109375 0.75 0  2.109375 0.25 0  1.51921323205749 0.3418883887525936 0  1.522346610178253 0.6811769608297746 0  5.375456746419271 0.75 0  4.921875 0.76513671875 0  4.437956746419271 0.75 0  3.984375 0.23486328125 0  3.500456746419271 0.25 0  2.578125 0.23486328125 0  3.046875 0.23486328125 0  5.874543253580729 0.75 0  6.642123189445656 0.6909095493086836 0  6.746354166666666 0.2391688368055553 0  0.3197109619185111 0.2850049285972083 0  6.328125 0 0  0.6313375889370429 0.2351325552547357 0  0 0.75 0  6.252283381534729 0.2693808819694041 0  0.234375 1 0  6.948437500000001 0.7543055555555555 0  0.5934018769555939 0.7694151657947577 0  1.858854166666667 0.75 0  1.858854166666667 0.25 0  1.640625 0 0  2.093229166666667 0.5 0  7.5 0.25 0  3.282227579752604 0.75 0  7.5 0.75 0  1.171875 0 0  1.303539853147731 0.2235426933121065 0  5.148177083333333 0.2575683593749998 0  2.351822916666667 0.742431640625 0  1.640625 1 0  4.202380413457425 0.7645435094236485 0  3.047822985053062 0.4701848030090332 0  2.577177014946938 0.4701848030090332 0  4.672792740482199 0.76513671875 0  4.922822985053062 0.5298151969909668 0  5.390593497949761 0.5156244924311331 0  5.610292740482199 0.76513671875 0  3.516602579752604 0.5 0  4.45496853898097 0.4865915990446593 0  5.85753146101903 0.4865915990446593 0  3.749511210123698 0.23486328125 0  3.983397420247396 0.4999999999999999 0  2.343497975411212 0.2346270081980111 0  4.219002024588788 0.2346270081980111 0  0.703125 0 0  2.8125 0.2343755075688669 0  3.046875 0 0  2.578125 0 0  3.515625 0 0  3.984375 0 0  4.453125 1 0  5.390625 1 0  2.109375 0 0  2.109375 1 0  5.625 0.2921402030705575 0  5.390625 0 0  7.265625 0 0  6.796875 0 0  6.328125 1 0  3.046875 1 0  2.578125 1 0  3.984375 1 0  3.515625 1 0  4.453125 0 0  4.921875 0 0  5.859375 0 0  0.703125 1 0  1.171875 1 0  7.265625 1 0  4.921875 1 0  5.859375 1 0  0.234375 0 0  6.796875 1 0  6.980310975276531 0.2285890127127066 0  5.149170481934885 0.772689292163473 0  3.274170481934884 0.2273107078365268 0  6.101334126790364 0.7722468376159667 0  4.678005340872584 0.3000799877067239 0  2.8125 0.6921051326382495 0  3.75 0.6921051326382495 0  0.3515624999999999 0.8134571721668546 0  0.4990405774417521 0.4070099317153735 0  0.1789273931360182 0.625 0  6.31239060814315 0.5298877111157968 0  6.456979773992304 0.1917956348713352 0  6.699870808919271 0.4406293402777773 0  1.337539480965883 0.7944303676599538 0  6.058675797563041 0.2019812164653516 0  0.8203125 0.1643029084422534 0  0.1480856513011711 0.375 0  1.090769294689562 0.1719186776982972 0  7.291088163206459 0.5 0  7.094502414936563 0.5197902199074071 0  0.6046212059042245 0.5730066483871106 0  1.707231580809486 0.6342709161352207 0  1.685961352504593 0.8193269193390785 0  1.374721602852827 0.4600373025865813 0  6.486415510043844 0.5916440776477192 0  1.5234375 0.1508863828685116 0  1.707925830421689 0.3657739208189008 0  0.1674513225045584 0.8278776664019765 0  7.138268756771176 0.1438183366439137 0  7.1484375 0.8616388888888887 0  7.328562530764119 0.819498462930605 0  4.101073710123698 0.3678637200736647 0  1.693878467219965 0.1911955120941053 0  1.577566745468488 0.5110082404081502 0  6.6796875 0.8653871806883484 0  6.498039504430512 0.825568433346395 0  0.7562556668576472 0.8333197949571929 0  4.101045914668806 0.6255195807449272 0  5.030745188395182 0.382829047309028 0  2.476364945868651 0.6095868094762166 0  2.729359843907322 0.8460525663191247 0  2.9296875 0.8740763101564099 0  3.163518307559356 0.6254622797994247 0  3.666859843907322 0.8460525663191247 0  3.8671875 0.8740763101564099 0  4.8046875 0.12592368984359 0  3.14936031382311 0.8606990583876851 0  2.4609375 0.8747622921397776 0  5.023140791101972 0.1392266772452574 0  0 0.125 0  0.1759922923594607 0.1727589856739889 0  4.5703125 0.125 0  7.327755777818006 0.1766156770456191 0  5.5078125 0.125 0  5.719712725029036 0.1460701015352787 0  4.327848962028002 0.3674169956512513 0  5.982681121544351 0.3692637923021713 0  3.398926289876302 0.6245417594909667 0  5.281756792511996 0.3827993367299961 0  2.226822645963271 0.6252438868405666 0  2.234390064317166 0.8676616584526566 0  5.2734375 0.125 0  1.96796875 0.382568359375 0  2.234651037971999 0.3674169956512511 0  1.984114583333333 0.132568359375 0  1.9921875 0.875 0  1.984114583333333 0.632568359375 0  5.748733794462357 0.8678269127183313 0  3.3984375 0.875456329184688 0  1.512925924995415 0.8582958012121853 0  1.359299372802969 0.6275861864990343 0  4.810521420483513 0.4041767793635395 0  0.2996213306116602 0.455339710363317 0  5.999933717403708 0.6388425470751088 0  5.250033449003657 0.6388713364551682 0  3.631676045992918 0.3525406652400928 0  4.3359375 0.8816499670325881 0  4.343577437052484 0.6116511299909198 0  3.375033449003656 0.3611286635448316 0  5.763152151652243 0.6249404690537395 0  4.549347848347757 0.6249404690537396 0  5.5004588702411 0.6403667365776566 0  5.976118394847484 0.8816230218343086 0  5.054722486865804 0.6338007028640954 0  3.164542163493752 0.3520519332736524 0  2.445407482032355 0.3672168403687257 0  4.8046875 0.882568359375 0  4.1015625 0.117431640625 0  2.4609375 0.117431640625 0  2.695556894938151 0.3520510350344335 0  2.929443105061849 0.3520510350344335 0  3.881979231817319 0.3670559016511187 0  3.8671875 0.117431640625 0  4.805389247695744 0.6470047893641744 0  3.399370721942191 0.1184066543556767 0  5.274370721942192 0.881593345644323 0  3.618253274934649 0.1316869186284249 0  2.6953125 0.1171877537844335 0  2.9296875 0.1171877537844335 0  2.21873344389451 0.125 0  4.3359375 0.1171877625080073 0  0.6659898565672709 0.3986593551313873 0  7.363359022954956 0.3481046411219251 0  7.363359022954956 0.6518953588780749 0  5.487719392831826 0.3828237631077121 0  2.695054578344725 0.5809158475691247 0  2.944553877887707 0.5964065668438148 0  0.3515625 0.1201898858097106 0  5.5078125 1 0  4.5703125 1 0  5.031746201297604 0.882568359375 0  3.1640625 0 0  6.2109375 1 0  6.186845385763124 0.6336356480571081 0  4.1015625 1 0  6.810399074069772 0.6495574751396682 0  0.4740615253480797 0.2509287743856873 0  7.052064303830151 0.3684417917792242 0  6.195177069665382 0.1216488332168849 0  5.72300154718324 0.4112068202852788 0  3.879157465495092 0.6111892850691246 0  3.645760045247695 0.5809158475691247 0  6.868257400485771 0.3427840810237202 0  6.612030892260864 0.1521752713064389 0  6.615666885941117 0.3151079644097221 0  4.04296875 0.8633718902669071 0  1.183031453639096 0.8486801864185936 0  6.9140625 0 0  6.859079526500421 0.1398292786950638 0  6.808232443325651 0.7957411753922057 0  6.9140625 1 0  4.544955211100143 0.3675874343205077 0  1.0546875 1 0  6.122060236165557 0.3316791557072867 0  0.5859375 0 0  5.9765625 0 0  5.44921875 0.870984788733638 0  4.51171875 0.870984788733638 0  0.7608354256382215 0.2931261274224557 0  6.386875332239937 0.3156583003094978 0  6.985654756850997 0.6147408423643147 0  6.223797257919172 0.8535621912121121 0  5.936822413218736 0.1338376546337823 0  6.23933008800134 0.4095573603773768 0  0.5414022462152697 0.1305482677949959 0  6.331360438104348 0.1370086318183389 0  0.956404929269873 0.1374266563647954 0  1.2890625 1 0  0.691305981127761 0.6764829884281737 0  3.531251607241209 0.8678916320952239 0  2.59787442813022 
[...]
<PointData  Vectors="f_71627"> 
<DataArray  type="Float64"  Name="f_71627"  NumberOfComponents="3" format="ascii">0.0000000000000000e+00 0.0000000000000000e+00 0.0000000000000000e+00  0.0000000000000000e+00 0.0000000000000000e+00 0.0000000000000000e+00  0.0000000000000000e+00 0.0000000000000000e+00 0.0000000000000000e+00  0.0000000000000000e+00 0.0000000000000000e+00 0.0000000000000000e+00  0.0000000000000000e+00 0.0000000000000000e+00 0.0000000000000000e+00  0.0000000000000000e+00 0.0000000000000000e+00 0.0000000000000000e+00  0.0000000000000000e+00 0.0000000000000000e+00 0.0000000000000000e+00  0.0000000000000000e+00 0.0000000000000000e+00 0.0000000000000000e+00  0.0000000000000000e+00 0.0000000000000000e+00 0.0000000000000000e+00  0.0000000000000000e+00 0.0000000000000000e+00 0.0000000000000000e+00  0.0000000000000000e+00 0.0000000000000000e+00 0.0000000000000000e+00  0.0000000000000000e+00 0.0000000000000000e+00 0.0000000000000000e+00  0.0000000000000000e+00 0.0000000000000000e+00 0.0000000000000000e+00  0.0000000000000000e+00 0.0000000000000000e+00 0.0000000000000000e+00  0.0000000000000000e+00 0.0000000000000000e+00 0.0000000000000000e+00  0.0000000000000000e+00 0.0000000000000000e+00 0.0000000000000000e+00  0.0000000000000000e+00 0.0000000000000000e+00 0.0000000000000000e+00  0.0000000000000000e+00 0.0000000000000000e+00 0.0000000000000000e+00  0.0000000000000000e+00 0.0000000000000000e+00 0.0000000000000000e+00  0.0000000000000000e+00 0.0000000000000000e+00 0.0000000000000000e+00  0.0000000000000000e+00 0.0000000000000000e+00 0.0000000000000000e+00  0.0000000000000000e+00 0.0000000000000000e+00 0.0000000000000000e+00  0.0000000000000000e+00 0.0000000000000000e+00 0.0000000000000000e+00  0.0000000000000000e+00 0.0000000000000000e+00 0.0000000000000000e+00  0.0000000000000000e+00 0.0000000000000000e+00 0.0000000000000000e+00  0.0000000000000000e+00 0.0000000000000000e+00 0.0000000000000000e+00  0.0000000000000000e+00 0.0000000000000000e+00 0.0000000000000000e+00  0.0000000000000000e+00 0.0000000000000000e+00 0.0000000000000000e+00  0.0000000000000000e+00 0.0000000000000000e+00 0.0000000000000000e+00  0.0000000000000000e+00 0.0000000000000000e+00 0.0000000000000000e+00  0.0000000000000000e+00 0.0000000000000000e+00 0.0000000000000000e+00  0.0000000000000000e+00 0.0000000000000000e+00 0.0000000000000000e+00  0.0000000000000000e+00 0.0000000000000000e+00 0.0000000000000000e+00  0.0000000000000000e+00 0.0000000000000000e+00 0.0000000000000000e+00  0.0000000000000000e+00 0.0000000000000000e+00 0.0000000000000000e+00  0.0000000000000000e+00 0.0000000000000000e+00 0.0000000000000000e+00  0.0000000000000000e+00 0.0000000000000000e+00 0.0000000000000000e+00  0.0000000000000000e+00 0.0000000000000000e+00 0.0000000000000000e+00  0.0000000000000000e+00 0.0000000000000000e+00 0.0000000000000000e+00  0.0000000000000000e+00 0.0000000000000000e+00 0.0000000000000000e+00  0.0000000000000000e+00 0.0000000000000000e+00 0.0000000000000000e+00  0.0000000000000000e+00 0.0000000000000000e+00 0.0000000000000000e+00  0.0000000000000000e+00 0.0000000000000000e+00 0.0000000000000000e+00  0.0000000000000000e+00 0.0000000000000000e+00 0.0000000000000000e+00  0.0000000000000000e+00 0.0000000000000000e+00 0.0000000000000000e+00  0.0000000000000000e+00 0.0000000000000000e+00 0.0000000000000000e+00  0.0000000000000000e+00 0.0000000000000000e+00 0.0000000000000000e+00  0.0000000000000000e+00 0.0000000000000000e+00 0.0000000000000000e+00  0.0000000000000000e+00 0.0000000000000000e+00 0.0000000000000000e+00  0.0000000000000000e+00 0.0000000000000000e+00 0.0000000000000000e+00  0.0000000000000000e+00 0.0000000000000000e+00 0.0000000000000000e+00  0.0000000000000000e+00 0.0000000000000000e+00 0.0000000000000000e+00  0.0000000000000000e+00 0.0000000000000000e+00 0.0000000000000000e+00  0.0000000000000000e+00 0.0000000000000000e+00 0.0000000000000000e+00  0.0000000000000000e+00 0.0000000000000000e+00 0.0000000000000000e+00  0.0000000000000000e+00 0.0000000000000000e+00 0.0000000000000000e+00  0.0000000000000000e+00 0.0000000000000000e+00 0.0000000000000000e+00  0.0000000000000000e+00 0.0000000000000000e+00 0.0000000000000000e+00  0.0000000000000000e+00 0.0000000000000000e+00 0.0000000000000000e+00  1.1323340620707476e+00 4.2915655195967467e-01 0.0000000000000000e+00  1.6185630887472242e+00 -1.1722657918331931e+00 0.0000000000000000e+00  1.7235811231119795e+00 1.3012427939527487e+00 0.0000000000000000e+00  2.0176850615425512e+00 9.1256367658596071e-02 0.0000000000000000e+00  1.1732125994343359e+00 5.0651002407834569e-03 0.0000000000000000e+00  1.5000002392779126e+00 0.0000000000000000e+00 0.0000000000000000e+00  1.2318267560346614e+00 6.9696826939244939e-04 0.0000000000000000e+00  1.2427717225038131e+00 -1.3178974991941528e+00 0.0000000000000000e+00  1.5000002392779126e+00 0.0000000000000000e+00 0.0000000000000000e+00  0.0000000000000000e+00 0.0000000000000000e+00 0.0000000000000000e+00  1.3093888024471361e+00 8.6820077231234624e-02 0.0000000000000000e+00  0.0000000000000000e+00 0.0000000000000000e+00 0.0000000000000000e+00  0.0000000000000000e+00 0.0000000000000000e+00 0.0000000000000000e+00  1.6414871959960768e+00 -5.0375191595761137e-01 0.0000000000000000e+00  0.0000000000000000e+00 0.0000000000000000e+00 0.0000000000000000e+00  0.0000000000000000e+00 0.0000000000000000e+00 0.0000000000000000e+00  0.0000000000000000e+00 0.0000000000000000e+00 0.0000000000000000e+00  1.2831827204057635e+00 5.4168613531915066e-01 0.0000000000000000e+00  0.0000000000000000e+00 0.0000000000000000e+00 0.0000000000000000e+00  0.0000000000000000e+00 0.0000000000000000e+00 0.0000000000000000e+00  1.4924314330813231e+00 8.1642720634804034e-01 0.0000000000000000e+00  0.0000000000000000e+00 0.0000000000000000e+00 0.0000000000000000e+00  0.0000000000000000e+00 0.0000000000000000e+00 0.0000000000000000e+00  0.0000000000000000e+00 0.0000000000000000e+00 0.0000000000000000e+00  0.0000000000000000e+00 0.0000000000000000e+00 0.0000000000000000e+00  0.0000000000000000e+00 0.0000000000000000e+00 0.0000000000000000e+00  0.0000000000000000e+00 0.0000000000000000e+00 0.0000000000000000e+00  0.0000000000000000e+00 0.0000000000000000e+00 0.0000000000000000e+00  1.3639438049938450e+00 -2.1012385709904308e-03 0.0000000000000000e+00  1.1867940642808255e+00 -5.4466580892049412e-03 0.0000000000000000e+00  1.1803511595398526e+00 -1.0577808606406535e-02 0.0000000000000000e+00  1.1072008663809794e+00 1.6735464646433246e-01 0.0000000000000000e+00  1.9314763040445966e+00 2.7616123065808218e-01 0.0000000000000000e+00  8.6656559999607430e-01 1.1093228371974602e+00 0.0000000000000000e+00  1.3702461714849183e+00 -5.2753252422867514e-01 0.0000000000000000e+00  1.2579600447521977e+00 -2.9060447866908617e-02 0.0000000000000000e+00  4.7635853145092194e-01 -6.6092933300542300e-01 0.0000000000000000e+00  1.1544827745786819e+00 5.4700797812024804e-03 0.0000000000000000e+00  9.2635110951163346e-01 -3.1489886625885306e-03 0.0000000000000000e+00  1.0299157763297504e+00 1.1437818213357365e-02 0.0000000000000000e+00  8.8310392917343539e-01 -2.5529459056128434e-01 0.0000000000000000e+00  1.1250001794584346e+00 0.0000000000000000e+00 0.0000000000000000e+00  -2.3167863235219516e-01 8.3664442967711458e-02 0.0000000000000000e+00  2.3617454587993838e+00 8.0532074065096604e-01 0.0000000000000000e+00  7.1003374681033260e-01 6.5526964181362513e-01 0.0000000000000000e+00  1.6288807774030227e+00 -4.9914104628576678e-01 0.0000000000000000e+00  1.3708045113552365e+00 -4.5927527154155662e-01 0.0000000000000000e+00  1.0279550816413283e+00 3.1139682986165534e-01 0.0000000000000000e+00  2.1311816880407469e-01 3.3770689765029593e-01 0.0000000000000000e+00  8.1543698681577337e-01 -7.1263076211419485e-01 0.0000000000000000e+00  1.3537377003783926e+00 6.7610672141663997e-01 0.0000000000000000e+00  9.7012640714998910e-01 2.3820684471107020e-01 0.0000000000000000e+00  1.4937714703357667e+00 -8.3845868960439351e-01 0.0000000000000000e+00  1.1089785166963515e+00 7.6854095791835220e-02 0.0000000000000000e+00  1.1512322332075531e+00 4.9407672768137971e-03 0.0000000000000000e+00  1.1544039317411181e+00 -4.1433695686716879e-03 0.0000000000000000e+00  1.2290348258984531e+00 -6.9047628274841844e-02 0.0000000000000000e+00  0.0000000000000000e+00 0.0000000000000000e+00 0.0000000000000000e+00  1.2250698419745130e+00 -2.7980581986982084e-01 0.0000000000000000e+00  1.1250001794584346e+00 0.0000000000000000e+00 0.0000000000000000e+00  1.1814574062882710e+00 1.8183225561665690e-02 0.0000000000000000e+00  0.0000000000000000e+00 0.0000000000000000e+00 0.0000000000000000e+00  1.2824538035646940e+00 -3.0589892599271495e-03 0.0000000000000000e+00  1.0638459874467758e+00 2.3554930894960263e-01 0.0000000000000000e+00  9.5842733287440540e-01 -2.4559409628904155e-01 0.0000000000000000e+00  1.1401605340112595e+00 -4.2889484242495612e-01 0.0000000000000000e+00  0.0000000000000000e+00 0.0000000000000000e+00 0.0000000000000000e+00  1.4889859292140890e+00 -1.1817174981544716e-01 0.0000000000000000e+00  1.1250001794584346e+00 0.0000000000000000e+00 0.0000000000000000e+00  1.1380020903407373e-01 3.5654904320499659e-01 0.0000000000000000e+00  1.1250001794584346e+00 0.0000000000000000e+00 0.0000000000000000e+00  0.0000000000000000e+00 0.0000000000000000e+00 0.0000000000000000e+00  1.9281070252640149e+00 3.2672175908753254e-01 0.0000000000000000e+00  7.3028920760588101e-01 1.5119300674065150e-01 0.0000000000000000e+00  7.2712355155242081e-01 7.4449512436371335e-01 0.0000000000000000e+00  0.0000000000000000e+00 0.0000000000000000e+00 0.0000000000000000e+00  2.1711256956782951e-01 -6.1012017292394083e-01 0.0000000000000000e+00  1.9239830138471410e+00 -7.4243253508852491e-01 0.0000000000000000e+00  1.4437949752297987e+00 7.2086139048235451e-02 0.0000000000000000e+00  5.4881178081059712e-01 5.7736933401237767e-01 0.0000000000000000e+00  1.2493593094216129e+00 4.9166602971589657e-01 0.0000000000000000e+00  1.4659945167493242e+00 -8.3341140581497641e-01 0.0000000000000000e+00  1.0457672567984415e+00 7.1849709358183855e-02 0.0000000000000000e+00  1.4311551370476090e+00 1.4317502013482208e+00 0.0000000000000000e+00  1.7173902573797495e+00 2.9935900646619712e-01 0.0000000000000000e+00  1.2257778713680751e+00 1.3746228151544646e-02 0.0000000000000000e+00  8.4557456779357032e-01 1.3366884618988556e-01 0.0000000000000000e+00  1.6190731235133029e+00 -1.1970496510487107e+00 0.0000000000000000e+00  1.0016159977876691e+00 3.2274120352549635e-01 0.0000000000000000e+00  1.6733123697890304e+00 -4.9492817690888102e-01 0.0000000000000000e+00  0.0000000000000000e+00 0.0000000000000000e+00 0.0000000000000000e+00  1.3362145267747696e+00 -1.2686131421073207e-01 0.0000000000000000e+00  0.0000000000000000e+00 0.0000000000000000e+00 0.0000000000000000e+00  0.0000000000000000e+00 0.0000000000000000e+00 0.0000000000000000e+00  0.0000000000000000e+00 0.0000000000000000e+00 0.0000000000000000e+00  0.0000000000000000e+00 0.0000000000000000e+00 0.0000000000000000e+00  0.0000000000000000e+00 0.0000000000000000e+00 0.0000000000000000e+00  0.0000000000000000e+00 0.0000000000000000e+00 0.0000000000000000e+00  0.0000000000000000e+00 0.0000000000000000e+00 0.0000000000000000e+00  0.0000000000000000e+00 0.0000000000000000e+00 0.0000000000000000e+00  1.0973364249591639e+00 -1.0436610836576717e-01 0.0000000000000000e+00  0.0000000000000000e+00 0.0000000000000000e+00 0.0000000000000000e+00  0.0000000000000000e+00 0.0000000000000000e+00 0.0000000000000000e+00  0.0000000000000000e+00 0.0000000000000000e+00 0.0000000000000000e+00  0.0000000000000000e+00 0.0000000000000000e+00 0.0000000000000000e+00  0.0000000000000000e+00 0.0000000000000000e+00 0.0000000000000000e+00  0.0000000000000000e+00 0.0000000000000000e+00 0.0000000000000000e+00  0.0000000000000000e+00 0.0000000000000000e+00 0.0000000000000000e+00  0.0000000000000000e+00 0.0000000000000000e+00 0.0000000000000000e+00  0.0000000000000000e+00 0.0000000000000000e+00 0.0000000000000000e+00  0.0000000000000000e+00 0.0000000000000000e+00 0.0000000000000000e+00  0.0000000000000000e+00 0.0000000000000000e+00 0.0000000000000000e+00  0.0000000000000000e+00 0.0000000000000000e+00 0.0000000000000000e+00  0.0000000000000000e+00 0.0000000000000000e+00 0.0000000000000000e+00  0.0000000000000000e+00 0.0000000000000000e+00 0.0000000000000000e+00  0.0000000000000000e+00 0.0000000000000000e+00 0.0000000000000000e+00  0.0000000000000000e+00 0.0000000000000000e+00 0.0000000000000000e+00  0.0000000000000000e+00 0.0000000000000000e+00 0.0000000000000000e+00  0.0000000000000000e+00 0.0000000000000000e+00 0.0000000000000000e+00  1.1889842244067070e+00 -2.7205786266425213e-04 0.0000000000000000e+00  1.4543153406374272e+00 8.2108684594585396e-02 0.0000000000000000e+00  1.4968576014253254e+00 -1.9249075001913956e-02 0.0000000000000000e+00  1.1353680731316886e+00 1.8491074415935591e-02 0.0000000000000000e+00  1.5051679984133011e+00 3.6734022326077120e-01 0.0000000000000000e+00  1.1610951779242324e+00 -5.7086060363076052e-01 0.0000000000000000e+00  1.4813213271558212e+00 2.6053040972543962e-01 0.0000000000000000e+00  9.1045690238110166e-01 3.7716446899309954e-02 0.0000000000000000e+00  1.3500576902389763e+00 -1.3708397212878989e-01 0.0000000000000000e+00  1.3930982518231059e+00 -1.2912036175047792e-02 0.0000000000000000e+00  1.1694146412982260e+00 1.1151212588247101e-02 0.0000000000000000e+00  1.1674432093588134e+00 3.1971258661946992e-03 0.0000000000000000e+00  1.2156812894027451e+00 -1.7220135299617694e-03 0.0000000000000000e+00  2.2984446015182138e+00 -1.7888571487247770e-01 0.0000000000000000e+00  1.1736453122132662e+00 -1.9283859394688353e-03 0.0000000000000000e+00  1.3993706721677079e+00 -3.1922829826164739e-01 0.0000000000000000e+00  1.4039647276838900e+00 -2.9606675216011315e-02 0.0000000000000000e+00  1.8830098775354638e+00 -4.4987267875874239e-02 0.0000000000000000e+00  1.3831782254461840e+00 3.6197413540118750e-03 0.0000000000000000e+00  1.3723832296788052e+00 3.5631937889134416e-03 0.0000000000000000e+00  1.1495925053005827e+00 5.3177787345105872e-02 0.0000000000000000e+00  1.9427169101880370e+00 -1.5556959072608965e+00 0.0000000000000000e+00  1.3912584191135244e+00 -7.7655622063765428e-01 0.0000000000000000e+00  -7.7236472976444215e-01 1.0459964951824865e+00 0.0000000000000000e+00  1.1759521120993708e+00 3.1046694623116356e-03 0.0000000000000000e+00  1.3226876610144265e+00 8.4577106303466376e-02 0.0000000000000000e+00  1.4056251364975983e-01 -7.8285650421853459e-01 0.0000000000000000e+00  8.5293336372757644e-01 -1.7117515444931030e-04 0.0000000000000000e+00  8.7582585410793978e-01 1.7246812461653575e-03 0.0000000000000000e+00  9.7252530368069623e-01 -5.0481524454072706e-05 0.0000000000000000e+00  8.2728542048644893e-01 -6.9310841384978379e-03 0.0000000000000000e+00  1.4887773666036694e+00 -1.1425221747645438e+00 0.0000000000000000e+00  1.4156499061464689e+00 -2.9263288969515877e-01 0.0000000000000000e+00  5.2841253813382794e-01 -2.0530796559413624e-02 0.0000000000000000e+00  1.0395819623643352e+00 6.1262455971733366e-03 0.0000000000000000e+00  1.0530480565235738e+00 1.3788618673434240e-03 0.0000000000000000e+00  1.1976739319887271e+00 4.3406075418981044e-01 0.0000000000000000e+00  1.0780856741594163e+00 -1.3527304664322222e+00 0.0000000000000000e+00  1.0304526575387096e+00 3.2472005699396850e-01 0.0000000000000000e+00  1.3482989400018330e+00 5.1693630912721578e-01 0.0000000000000000e+00  8.2921136298416298e-01 -6.3604392449245012e-02 0.0000000000000000e+00  -9.0564235547619040e-03 -5.5099995659977685e-01 0.0000000000000000e+00  1.2060352673043546e+00 -3.6542745625099077e-01 0.0000000000000000e+00  1.1677634078927501e+00 2.4836157885759286e-01 0.0000000000000000e+00  1.2960338270816352e+00 -2.2169948644878638e-02 0.0000000000000000e+00  8.7287246895969062e-01 6.5959680792212164e-02 0.0000000000000000e+00  -2.6390264686732123e-01 -7.7786886606940067e-02 0.0000000000000000e+00  1.0829602051048688e+00 2.2721913621864064e-02 0.0000000000000000e+00  8.0744898187614456e-01 3.2887394472092026e-02 0.0000000000000000e+00  6.5625010468408684e-01 0.0000000000000000e+00 0.0000000000000000e+00  8.6491359643673882e-01 -2.9107032361817595e-02 0.0000000000000000e+00  1.1300741922702999e+00 1.1465697391209791e-01 0.0000000000000000e+00  6.5388673540661701e-01 2.6839458180908448e-02 0.0000000000000000e+00  9.0808265506216546e-01 -4.9381059709068788e-02 0.0000000000000000e+00  1.0563527957973413e+00 1.8697829329055324e-02 0.0000000000000000e+00  1.9676831408759985e+00 -2.9595565499088361e-01 0.0000000000000000e+00  1.1789554581541284e+00 1.1055162996560204e-02 0.0000000000000000e+00  1.0325242138062158e+00 1.0449820405019030e+00 0.0000000000000000e+00  7.2513700713447715e-01 -2.5143399853637399e-01 0.0000000000000000e+00  7.7703800396874212e-01 1.1676161229002202e+00 0.0000000000000000e+00  2.4891635886038646e-01 2.9821950255179497e-01 0.0000000000000000e+00  7.3701674114055560e-01 -3.9541975850864212e-02 0.0000000000000000e+00  1.4900303724947959e+00 -6.6080791331554256e-01 0.0000000000000000e+00  2.3264254695972335e+00 1.4537153928362934e+00 0.0000000000000000e+00  1.9112037024884534e+00 2.5839105963889969e-01 0.0000000000000000e+00  1.6765872049447283e-01 1.9224513697016651e-02 0.0000000000000000e+00  8.1789146289609660e-01 -1.0635556811777929e+00 0.0000000000000000e+00  9.3275590648492679e-01 4.6078918770192830e-02 0.0000000000000000e+00  9.0170490463793759e-02 2.8774142513562517e-01 0.0000000000000000e+00  1.9401895456678966e+00 -6.1247444872361367e-01 0.0000000000000000e+00  3.1870776872951351e-01 8.9105314544285330e-01 0.0000000000000000e+00  1.3099452031920242e+00 3.6618890460344955e-01 0.0000000000000000e+00  1.4552688197502353e+00 -5.2264864968520966e-02 0.0000000000000000e+00  1.1621863366499869e+00 1.9921826505357319e-02 0.0000000000000000e+00  1.6458703441203975e+00 -1.6560055537098589e-01 0.0000000000000000e+00  1.3535745999630810e+00 7.7519957760961689e-01 0.0000000000000000e+00  -1.3660595333416678e-01 9.9180993968419048e-02 0.0000000000000000e+00  1.0257428846878245e+00 -1.9653212690542649e-01 0.0000000000000000e+00  1.7355727549767916e+00 4.3749763177725076e-01 0.0000000000000000e+00  1.2295490951700665e+00 -1.0009012438667381e-02 0.0000000000000000e+00  9.8682931373079019e-01 7.6943178080080299e-01 0.0000000000000000e+00  1.3372088812997649e+00 -2.6302443258435509e-01 0.0000000000000000e+00  9.1203141504416840e-01 -5.7757630860048783e-03 0.0000000000000000e+00  1.3305258577889718e+00 4.8019537551760394e-01 0.0000000000000000e+00  1.7399754283989459e+00 -3.7812161527848326e-01 0.0000000000000000e+00  1.5002238318425070e+00 2.6022187128620911e-01 0.0000000000000000e+00  6.2611895881406388e-01 2.6912870979802744e-01 0.0000000000000000e+00  9.1150523998995248e-01 -2.1712936740195010e-01 0.0000000000000000e+00  5.7760654857675642e-01 2.7641371784518979e-02 0.0000000000000000e+00  1.4810677350829544e+00 5.5662899600399704e-02 0.0000000000000000e+00  1.8513731819633825e+00 -7.3422976027345332e-01 0.0000000000000000e+00  1.0938983547098928e+00 -5.5859030911814309e-02 0.0000000000000000e+00  4.4521272318060967e-01 -7.8357176402599801e-02 0.0000000000000000e+00  1.2069006981298982e+00 6.0690139604429105e-01 0.0000000000000000e+00  1.2500772025063744e+00 2.4392401864496033e-01 0.0000000000000000e+00  1.0149450538396378e+00 -1.2545311339017631e-01 0.0000000000000000e+00  6.7839635556944344e-01 2.9086847014385447e-01 0.0000000000000000e+00  2.1783857378570703e-01 1.2597905927480579e-01 0.0000000000000000e+00  3.0168175819602566e-01 -5.4608727118233924e-01 0.0000000000000000e+00  8.0755588750049756e-01 2.0157326180305798e-01 0.0000000000000000e+00  1.3974275110347756e+00 5.8571450955685687e-02 0.0000000000000000e+00  1.2185825194753077e+00 -3.8445838336862515e-01 0.0000000000000000e+00  1.0326133498027121e+00 -3.8526456419548647e-03 0.0000000000000000e+00  1.1286171937285965e+00 7.7881589713757722e-03 0.0000000000000000e+00  1.2143675241758605e+00 -4.4999576554233206e-01 0.00000000000000