<?xml version="1.0"?>
<VTKFile type="UnstructuredGrid"  version="0.1"  >
<UnstructuredGrid>
<Piece  NumberOfPoints="4269" NumberOfCells="8234">
<Points>
<DataArray  type="Float64"  NumberOfComponents="3"  format="ascii">0 1 0  0 0 0  7.5 0 0  7.5 1 0  1.197537668119028 0.5812868930080463 0  1.2 0.55 0  1.197537668119028 0.5187131069919538 0  1.190211303259031 0.4881966011250105 0  1.178201304837674 0.4592019000520907 0  1.161803398874989 0.4324429495415054 0  1.141421356237309 0.4085786437626905 0  1.117557050458495 0.3881966011250105 0  1.090798099947909 0.3717986951623264 0  1.06180339887499 0.3597886967409693 0  1.031286893008046 0.3524623318809725 0  1 0.35 0  0.9687131069919538 0.3524623318809725 0  0.9381966011250105 0.3597886967409694 0  0.9092019000520906 0.3717986951623264 0  0.8824429495415054 0.3881966011250105 0  0.8585786437626904 0.4085786437626905 0  0.8381966011250105 0.4324429495415054 0  0.8217986951623264 0.4592019000520907 0  0.8097886967409692 0.4881966011250107 0  0.8024623318809725 0.5187131069919539 0  0.8 0.55 0  0.8024623318809725 0.5812868930080463 0  0.8097886967409693 0.6118033988749896 0  0.8217986951623264 0.6407980999479095 0  0.8381966011250105 0.6675570504584947 0  0.8585786437626906 0.6914213562373096 0  0.8824429495415054 0.7118033988749896 0  0.9092019000520907 0.7282013048376736 0  0.9381966011250106 0.7402113032590307 0  0.9687131069919539 0.7475376681190276 0  1 0.75 0  1.031286893008046 0.7475376681190276 0  1.06180339887499 0.7402113032590307 0  1.090798099947909 0.7282013048376736 0  1.117557050458495 0.7118033988749896 0  1.141421356237309 0.6914213562373095 0  1.161803398874989 0.6675570504584947 0  1.178201304837674 0.6407980999479094 0  1.190211303259031 0.6118033988749896 0  3.75 0 0  3.75 1 0  1.875 0 0  1.875 1 0  0.9375 0 0  0.9375 1 0  1.40625 1 0  5.625 1 0  5.625 0 0  2.8125 1 0  2.8125 0 0  4.6875 0 0  4.6875 1 0  6.5625 0 0  6.5625 1 0  5.15625 0.5 0  4.21875 0.5 0  2.34375 0.5 0  3.28125 0.5 0  6.09375 0.5 0  7.5 0.5 0  6.897916666666666 0.5 0  1.842708333333333 0.5 0  0 0.5 0  0.46875 0 0  5.625 0.5302734375 0  7.03125 0 0  6.09375 1 0  2.8125 0.4697265625 0  3.28125 0 0  2.34375 1 0  2.34375 0 0  3.75 0.4697265625 0  4.21875 0 0  4.21875 1 0  4.6875 0.5302734375 0  3.28125 1 0  5.15625 0 0  6.09375 0 0  5.15625 1 0  0.46875 1 0  1.40625 0 0  7.03125 1 0  0.3954638734376499 0.5975780249976004 0  6.495833333333334 0.4072265624999998 0  5.859375 0.25 0  4.905729166666666 0.26513671875 0  4.453125 0.25 0  3.531770833333333 0.73486328125 0  3.968229166666667 0.73486328125 0  2.594270833333333 0.73486328125 0  3.030729166666667 0.73486328125 0  6.328125 0.75 0  7.198958333333334 0.3125000000000002 0  7.198958333333334 0.6874999999999998 0  5.390625 0.25 0  0 0.25 0  2.109375 0.75 0  2.109375 0.25 0  1.51921323205749 0.3418883887525936 0  1.522346610178253 0.6811769608297746 0  5.375456746419271 0.75 0  4.921875 0.76513671875 0  4.437956746419271 0.75 0  3.984375 0.23486328125 0  3.500456746419271 0.25 0  2.578125 0.23486328125 0  3.046875 0.23486328125 0  5.874543253580729 0.75 0  6.642123189445656 0.6909095493086836 0  6.746354166666666 0.2391688368055553 0  0.3197109619185111 0.2850049285972083 0  6.328125 0 0  0.6313375889370429 0.2351325552547357 0  0 0.75 0  6.252283381534729 0.2693808819694041 0  0.234375 1 0  6.948437500000001 0.7543055555555555 0  0.5934018769555939 0.7694151657947577 0  1.858854166666667 0.75 0  1.858854166666667 0.25 0  1.640625 0 0  2.093229166666667 0.5 0  7.5 0.25 0  3.282227579752604 0.75 0  7.5 0.75 0  1.171875 0 0  1.303539853147731 0.2235426933121065 0  5.148177083333333 0.2575683593749998 0  2.351822916666667 0.742431640625 0  1.640625 1 0  4.202380413457425 0.7645435094236485 0  3.047822985053062 0.4701848030090332 0  2.577177014946938 0.4701848030090332 0  4.672792740482199 0.76513671875 0  4.922822985053062 0.5298151969909668 0  5.390593497949761 0.5156244924311331 0  5.610292740482199 0.76513671875 0  3.516602579752604 0.5 0  4.45496853898097 0.4865915990446593 0  5.85753146101903 0.4865915990446593 0  3.749511210123698 0.23486328125 0  3.983397420247396 0.4999999999999999 0  2.343497975411212 0.2346270081980111 0  4.219002024588788 0.2346270081980111 0  0.703125 0 0  2.8125 0.2343755075688669 0  3.046875 0 0  2.578125 0 0  3.515625 0 0  3.984375 0 0  4.453125 1 0  5.390625 1 0  2.109375 0 0  2.109375 1 0  5.625 0.2921402030705575 0  5.390625 0 0  7.265625 0 0  6.796875 0 0  6.328125 1 0  3.046875 1 0  2.578125 1 0  3.984375 1 0  3.515625 1 0  4.453125 0 0  4.921875 0 0  5.859375 0 0  0.703125 1 0  1.171875 1 0  7.265625 1 0  4.921875 1 0  5.859375 1 0  0.234375 0 0  6.796875 1 0  6.980310975276531 0.2285890127127066 0  5.149170481934885 0.772689292163473 0  3.274170481934884 0.2273107078365268 0  6.101334126790364 0.7722468376159667 0  4.678005340872584 0.3000799877067239 0  2.8125 0.6921051326382495 0  3.75 0.6921051326382495 0  0.3515624999999999 0.8134571721668546 0  0.4990405774417521 0.4070099317153735 0  0.1789273931360182 0.625 0  6.31239060814315 0.5298877111157968 0  6.456979773992304 0.1917956348713352 0  6.699870808919271 0.4406293402777773 0  1.337539480965883 0.7944303676599538 0  6.058675797563041 0.2019812164653516 0  0.8203125 0.1643029084422534 0  0.1480856513011711 0.375 0  1.090769294689562 0.1719186776982972 0  7.291088163206459 0.5 0  7.094502414936563 0.5197902199074071 0  0.6046212059042245 0.5730066483871106 0  1.707231580809486 0.6342709161352207 0  1.685961352504593 0.8193269193390785 0  1.374721602852827 0.4600373025865813 0  6.486415510043844 0.5916440776477192 0  1.5234375 0.1508863828685116 0  1.707925830421689 0.3657739208189008 0  0.1674513225045584 0.8278776664019765 0  7.138268756771176 0.1438183366439137 0  7.1484375 0.8616388888888887 0  7.328562530764119 0.819498462930605 0  4.101073710123698 0.3678637200736647 0  1.693878467219965 0.1911955120941053 0  1.577566745468488 0.5110082404081502 0  6.6796875 0.8653871806883484 0  6.498039504430512 0.825568433346395 0  0.7562556668576472 0.8333197949571929 0  4.101045914668806 0.6255195807449272 0  5.030745188395182 0.382829047309028 0  2.476364945868651 0.6095868094762166 0  2.729359843907322 0.8460525663191247 0  2.9296875 0.8740763101564099 0  3.163518307559356 0.6254622797994247 0  3.666859843907322 0.8460525663191247 0  3.8671875 0.8740763101564099 0  4.8046875 0.12592368984359 0  3.14936031382311 0.8606990583876851 0  2.4609375 0.8747622921397776 0  5.023140791101972 0.1392266772452574 0  0 0.125 0  0.1759922923594607 0.1727589856739889 0  4.5703125 0.125 0  7.327755777818006 0.1766156770456191 0  5.5078125 0.125 0  5.719712725029036 0.1460701015352787 0  4.327848962028002 0.3674169956512513 0  5.982681121544351 0.3692637923021713 0  3.398926289876302 0.6245417594909667 0  5.281756792511996 0.3827993367299961 0  2.226822645963271 0.6252438868405666 0  2.234390064317166 0.8676616584526566 0  5.2734375 0.125 0  1.96796875 0.382568359375 0  2.234651037971999 0.3674169956512511 0  1.984114583333333 0.132568359375 0  1.9921875 0.875 0  1.984114583333333 0.632568359375 0  5.748733794462357 0.8678269127183313 0  3.3984375 0.875456329184688 0  1.512925924995415 0.8582958012121853 0  1.359299372802969 0.6275861864990343 0  4.810521420483513 0.4041767793635395 0  0.2996213306116602 0.455339710363317 0  5.999933717403708 0.6388425470751088 0  5.250033449003657 0.6388713364551682 0  3.631676045992918 0.3525406652400928 0  4.3359375 0.8816499670325881 0  4.343577437052484 0.6116511299909198 0  3.375033449003656 0.3611286635448316 0  5.763152151652243 0.6249404690537395 0  4.549347848347757 0.6249404690537396 0  5.5004588702411 0.6403667365776566 0  5.976118394847484 0.8816230218343086 0  5.054722486865804 0.6338007028640954 0  3.164542163493752 0.3520519332736524 0  2.445407482032355 0.3672168403687257 0  4.8046875 0.882568359375 0  4.1015625 0.117431640625 0  2.4609375 0.117431640625 0  2.695556894938151 0.3520510350344335 0  2.929443105061849 0.3520510350344335 0  3.881979231817319 0.3670559016511187 0  3.8671875 0.117431640625 0  4.805389247695744 0.6470047893641744 0  3.399370721942191 0.1184066543556767 0  5.274370721942192 0.881593345644323 0  3.618253274934649 0.1316869186284249 0  2.6953125 0.1171877537844335 0  2.9296875 0.1171877537844335 0  2.21873344389451 0.125 0  4.3359375 0.1171877625080073 0  0.6659898565672709 0.3986593551313873 0  7.363359022954956 0.3481046411219251 0  7.363359022954956 0.6518953588780749 0  5.487719392831826 0.3828237631077121 0  2.695054578344725 0.5809158475691247 0  2.944553877887707 0.5964065668438148 0  0.3515625 0.1201898858097106 0  5.5078125 1 0  4.5703125 1 0  5.031746201297604 0.882568359375 0  3.1640625 0 0  6.2109375 1 0  6.186845385763124 0.6336356480571081 0  4.1015625 1 0  6.810399074069772 0.6495574751396682 0  0.4740615253480797 0.2509287743856873 0  7.052064303830151 0.3684417917792242 0  6.195177069665382 0.1216488332168849 0  5.72300154718324 0.4112068202852788 0  3.879157465495092 0.6111892850691246 0  3.645760045247695 0.5809158475691247 0  6.868257400485771 0.3427840810237202 0  6.612030892260864 0.1521752713064389 0  6.615666885941117 0.3151079644097221 0  4.04296875 0.8633718902669071 0  1.183031453639096 0.8486801864185936 0  6.9140625 0 0  6.859079526500421 0.1398292786950638 0  6.808232443325651 0.7957411753922057 0  6.9140625 1 0  4.544955211100143 0.3675874343205077 0  1.0546875 1 0  6.122060236165557 0.3316791557072867 0  0.5859375 0 0  5.9765625 0 0  5.44921875 0.870984788733638 0  4.51171875 0.870984788733638 0  0.7608354256382215 0.2931261274224557 0  6.386875332239937 0.3156583003094978 0  6.985654756850997 0.6147408423643147 0  6.223797257919172 0.8535621912121121 0  5.936822413218736 0.1338376546337823 0  6.23933008800134 0.4095573603773768 0  0.5414022462152697 0.1305482677949959 0  6.331360438104348 0.1370086318183389 0  0.956404929269873 0.1374266563647954 0  1.2890625 1 0  0.691305981127761 0.6764829884281737 0  3.531251607241209 0.8678916320952239 0  2.59787442813022 
[...]
<PointData  Vectors="f_71627"> 
<DataArray  type="Float64"  Name="f_71627"  NumberOfComponents="3" format="ascii">0.0000000000000000e+00 0.0000000000000000e+00 0.0000000000000000e+00  0.0000000000000000e+00 0.0000000000000000e+00 0.0000000000000000e+00  0.0000000000000000e+00 0.0000000000000000e+00 0.0000000000000000e+00  0.0000000000000000e+00 0.0000000000000000e+00 0.0000000000000000e+00  0.0000000000000000e+00 0.0000000000000000e+00 0.0000000000000000e+00  0.0000000000000000e+00 0.0000000000000000e+00 0.0000000000000000e+00  0.0000000000000000e+00 0.0000000000000000e+00 0.0000000000000000e+00  0.0000000000000000e+00 0.0000000000000000e+00 0.0000000000000000e+00  0.0000000000000000e+00 0.0000000000000000e+00 0.0000000000000000e+00  0.0000000000000000e+00 0.0000000000000000e+00 0.0000000000000000e+00  0.0000000000000000e+00 0.0000000000000000e+00 0.0000000000000000e+00  0.0000000000000000e+00 0.0000000000000000e+00 0.0000000000000000e+00  0.0000000000000000e+00 0.0000000000000000e+00 0.0000000000000000e+00  0.0000000000000000e+00 0.0000000000000000e+00 0.0000000000000000e+00  0.0000000000000000e+00 0.0000000000000000e+00 0.0000000000000000e+00  0.0000000000000000e+00 0.0000000000000000e+00 0.0000000000000000e+00  0.0000000000000000e+00 0.0000000000000000e+00 0.0000000000000000e+00  0.0000000000000000e+00 0.0000000000000000e+00 0.0000000000000000e+00  0.0000000000000000e+00 0.0000000000000000e+00 0.0000000000000000e+00  0.0000000000000000e+00 0.0000000000000000e+00 0.0000000000000000e+00  0.0000000000000000e+00 0.0000000000000000e+00 0.0000000000000000e+00  0.0000000000000000e+00 0.0000000000000000e+00 0.0000000000000000e+00  0.0000000000000000e+00 0.0000000000000000e+00 0.0000000000000000e+00  0.0000000000000000e+00 0.0000000000000000e+00 0.0000000000000000e+00  0.0000000000000000e+00 0.0000000000000000e+00 0.0000000000000000e+00  0.0000000000000000e+00 0.0000000000000000e+00 0.0000000000000000e+00  0.0000000000000000e+00 0.0000000000000000e+00 0.0000000000000000e+00  0.0000000000000000e+00 0.0000000000000000e+00 0.0000000000000000e+00  0.0000000000000000e+00 0.0000000000000000e+00 0.0000000000000000e+00  0.0000000000000000e+00 0.0000000000000000e+00 0.0000000000000000e+00  0.0000000000000000e+00 0.0000000000000000e+00 0.0000000000000000e+00  0.0000000000000000e+00 0.0000000000000000e+00 0.0000000000000000e+00  0.0000000000000000e+00 0.0000000000000000e+00 0.0000000000000000e+00  0.0000000000000000e+00 0.0000000000000000e+00 0.0000000000000000e+00  0.0000000000000000e+00 0.0000000000000000e+00 0.0000000000000000e+00  0.0000000000000000e+00 0.0000000000000000e+00 0.0000000000000000e+00  0.0000000000000000e+00 0.0000000000000000e+00 0.0000000000000000e+00  0.0000000000000000e+00 0.0000000000000000e+00 0.0000000000000000e+00  0.0000000000000000e+00 0.0000000000000000e+00 0.0000000000000000e+00  0.0000000000000000e+00 0.0000000000000000e+00 0.0000000000000000e+00  0.0000000000000000e+00 0.0000000000000000e+00 0.0000000000000000e+00  0.0000000000000000e+00 0.0000000000000000e+00 0.0000000000000000e+00  0.0000000000000000e+00 0.0000000000000000e+00 0.0000000000000000e+00  0.0000000000000000e+00 0.0000000000000000e+00 0.0000000000000000e+00  0.0000000000000000e+00 0.0000000000000000e+00 0.0000000000000000e+00  0.0000000000000000e+00 0.0000000000000000e+00 0.0000000000000000e+00  0.0000000000000000e+00 0.0000000000000000e+00 0.0000000000000000e+00  0.0000000000000000e+00 0.0000000000000000e+00 0.0000000000000000e+00  0.0000000000000000e+00 0.0000000000000000e+00 0.0000000000000000e+00  0.0000000000000000e+00 0.0000000000000000e+00 0.0000000000000000e+00  0.0000000000000000e+00 0.0000000000000000e+00 0.0000000000000000e+00  0.0000000000000000e+00 0.0000000000000000e+00 0.0000000000000000e+00  0.0000000000000000e+00 0.0000000000000000e+00 0.0000000000000000e+00  0.0000000000000000e+00 0.0000000000000000e+00 0.0000000000000000e+00  0.0000000000000000e+00 0.0000000000000000e+00 0.0000000000000000e+00  0.0000000000000000e+00 0.0000000000000000e+00 0.0000000000000000e+00  0.0000000000000000e+00 0.0000000000000000e+00 0.0000000000000000e+00  0.0000000000000000e+00 0.0000000000000000e+00 0.0000000000000000e+00  0.0000000000000000e+00 0.0000000000000000e+00 0.0000000000000000e+00  1.1134649242264076e+00 5.9976907340109780e-04 0.0000000000000000e+00  1.1177618442614765e+00 -4.1494716303820556e-03 0.0000000000000000e+00  1.7752132143799428e+00 -2.7155491361207661e-02 0.0000000000000000e+00  1.0677713074486803e+00 -2.0087417022863707e-01 0.0000000000000000e+00  1.1124468612329863e+00 -8.5431365241261004e-04 0.0000000000000000e+00  1.5000002107831665e+00 0.0000000000000000e+00 0.0000000000000000e+00  1.1923527851174920e+00 -2.3326735792973284e-03 0.0000000000000000e+00  6.0255933981754695e-01 4.4167696092976738e-01 0.0000000000000000e+00  1.5000002107831665e+00 0.0000000000000000e+00 0.0000000000000000e+00  0.0000000000000000e+00 0.0000000000000000e+00 0.0000000000000000e+00  1.1205713230289898e+00 4.9695421802300305e-04 0.0000000000000000e+00  0.0000000000000000e+00 0.0000000000000000e+00 0.0000000000000000e+00  0.0000000000000000e+00 0.0000000000000000e+00 0.0000000000000000e+00  1.8072216089117792e+00 4.8738920973701705e-01 0.0000000000000000e+00  0.0000000000000000e+00 0.0000000000000000e+00 0.0000000000000000e+00  0.0000000000000000e+00 0.0000000000000000e+00 0.0000000000000000e+00  0.0000000000000000e+00 0.0000000000000000e+00 0.0000000000000000e+00  1.1095155036793605e+00 -3.0808465578598353e-02 0.0000000000000000e+00  0.0000000000000000e+00 0.0000000000000000e+00 0.0000000000000000e+00  0.0000000000000000e+00 0.0000000000000000e+00 0.0000000000000000e+00  1.1172495669108251e+00 -9.0415352211165744e-05 0.0000000000000000e+00  0.0000000000000000e+00 0.0000000000000000e+00 0.0000000000000000e+00  0.0000000000000000e+00 0.0000000000000000e+00 0.0000000000000000e+00  0.0000000000000000e+00 0.0000000000000000e+00 0.0000000000000000e+00  0.0000000000000000e+00 0.0000000000000000e+00 0.0000000000000000e+00  0.0000000000000000e+00 0.0000000000000000e+00 0.0000000000000000e+00  0.0000000000000000e+00 0.0000000000000000e+00 0.0000000000000000e+00  0.0000000000000000e+00 0.0000000000000000e+00 0.0000000000000000e+00  1.3585554221566918e+00 -6.4032441226387696e-02 0.0000000000000000e+00  1.1393862573006761e+00 -5.8998265426751699e-03 0.0000000000000000e+00  1.1165332277480251e+00 -5.5029578415357692e-03 0.0000000000000000e+00  1.1020111284891778e+00 4.5251081994449526e-04 0.0000000000000000e+00  1.0997094172013424e+00 5.0606101403718139e-04 0.0000000000000000e+00  1.1725872994812720e+00 -5.1967059659228675e-02 0.0000000000000000e+00  1.1282467010796737e+00 -8.3861711541631054e-03 0.0000000000000000e+00  4.1089837387333628e-01 6.4481705860531702e-01 0.0000000000000000e+00  1.3799336226823533e+00 2.6157589114571483e-01 0.0000000000000000e+00  1.1193527423325771e+00 -1.1203073174382220e-03 0.0000000000000000e+00  8.1823087939328754e-01 -1.1190411793406338e-03 0.0000000000000000e+00  9.5884885147355248e-01 1.5633818259331359e-02 0.0000000000000000e+00  1.1066937766580456e+00 2.0798444733677209e-03 0.0000000000000000e+00  1.1250001580873750e+00 0.0000000000000000e+00 0.0000000000000000e+00  6.6016962585164862e-01 -4.1672734950030016e-01 0.0000000000000000e+00  8.5599466194103280e-01 -3.5400128453455815e-01 0.0000000000000000e+00  2.1429673280306352e+00 9.6030789302514730e-01 0.0000000000000000e+00  -6.9423337504894624e-03 1.9774424639718205e-01 0.0000000000000000e+00  1.1161622009147196e+00 1.6289185521401797e-03 0.0000000000000000e+00  1.1195442005549716e+00 2.5647420107969441e-03 0.0000000000000000e+00  1.1197441725602224e+00 -3.4737335505628482e-04 0.0000000000000000e+00  1.1010353978314735e+00 -8.0087965813534241e-03 0.0000000000000000e+00  1.0465328546428521e+00 -4.6377883966797449e-02 0.0000000000000000e+00  1.2310802639935701e+00 4.6134969461850189e-01 0.0000000000000000e+00  8.5585923378884954e-01 -1.7197306534338672e-01 0.0000000000000000e+00  1.1207052292284885e+00 1.3178933063734348e-03 0.0000000000000000e+00  1.0997331145710962e+00 -7.0102745656813856e-04 0.0000000000000000e+00  1.1185496154902930e+00 -9.4375422620824306e-03 0.0000000000000000e+00  1.2420556242825960e+00 -1.1201918958547134e-01 0.0000000000000000e+00  0.0000000000000000e+00 0.0000000000000000e+00 0.0000000000000000e+00  1.2966032706505999e+00 -3.3471520261425680e-01 0.0000000000000000e+00  1.1250001580873750e+00 0.0000000000000000e+00 0.0000000000000000e+00  1.1263277579329456e+00 3.2909483179428399e-04 0.0000000000000000e+00  0.0000000000000000e+00 0.0000000000000000e+00 0.0000000000000000e+00  1.2591151696703649e+00 -4.2901169756116965e-03 0.0000000000000000e+00  9.9720028493801305e-01 1.7302197541936143e-01 0.0000000000000000e+00  1.9770581656147479e+00 -1.0143866738144283e+00 0.0000000000000000e+00  1.0856024016007597e+00 7.0754333895264879e-02 0.0000000000000000e+00  0.0000000000000000e+00 0.0000000000000000e+00 0.0000000000000000e+00  2.1756563575854639e+00 -1.3484665279871328e+00 0.0000000000000000e+00  1.1250001580873750e+00 0.0000000000000000e+00 0.0000000000000000e+00  1.3018445889832235e+00 -1.2840120252361989e-01 0.0000000000000000e+00  1.1250001580873750e+00 0.0000000000000000e+00 0.0000000000000000e+00  0.0000000000000000e+00 0.0000000000000000e+00 0.0000000000000000e+00  2.2802256106632250e+00 2.0271106512331585e-01 0.0000000000000000e+00  1.1075996414610736e+00 8.3064346798075435e-04 0.0000000000000000e+00  4.4524209200319459e-01 -2.2300684307620802e-01 0.0000000000000000e+00  0.0000000000000000e+00 0.0000000000000000e+00 0.0000000000000000e+00  1.1260618953446377e+00 -1.8055736630059557e-03 0.0000000000000000e+00  1.0267354223574152e+00 -5.7914929872728262e-02 0.0000000000000000e+00  1.9438254521820659e+00 4.1821612460211621e-01 0.0000000000000000e+00  1.1204517489376911e+00 2.0425331221694029e-04 0.0000000000000000e+00  1.1133332171492858e+00 6.3613491201147915e-04 0.0000000000000000e+00  1.1166211885204977e+00 1.6293872731053807e-03 0.0000000000000000e+00  1.1168921466125159e+00 1.0356849815778618e-03 0.0000000000000000e+00  1.1142419702030264e+00 -7.9388828299678763e-02 0.0000000000000000e+00  1.1135938065989170e+00 -9.1094812288807609e-04 0.0000000000000000e+00  1.1224748021079141e+00 -9.3802508932029681e-04 0.0000000000000000e+00  1.0845087558600552e+00 -1.8583894272364763e-02 0.0000000000000000e+00  1.1193804004929542e+00 -1.1333416896244045e-02 0.0000000000000000e+00  1.8819202669252018e+00 3.6413289257431142e-01 0.0000000000000000e+00  1.0996725626113180e+00 -3.2288805292815439e-03 0.0000000000000000e+00  0.0000000000000000e+00 0.0000000000000000e+00 0.0000000000000000e+00  6.6415300634427832e-01 -2.8058012677566713e-01 0.0000000000000000e+00  0.0000000000000000e+00 0.0000000000000000e+00 0.0000000000000000e+00  0.0000000000000000e+00 0.0000000000000000e+00 0.0000000000000000e+00  0.0000000000000000e+00 0.0000000000000000e+00 0.0000000000000000e+00  0.0000000000000000e+00 0.0000000000000000e+00 0.0000000000000000e+00  0.0000000000000000e+00 0.0000000000000000e+00 0.0000000000000000e+00  0.0000000000000000e+00 0.0000000000000000e+00 0.0000000000000000e+00  0.0000000000000000e+00 0.0000000000000000e+00 0.0000000000000000e+00  0.0000000000000000e+00 0.0000000000000000e+00 0.0000000000000000e+00  1.1063487292515302e+00 4.4180475115260091e-04 0.0000000000000000e+00  0.0000000000000000e+00 0.0000000000000000e+00 0.0000000000000000e+00  0.0000000000000000e+00 0.0000000000000000e+00 0.0000000000000000e+00  0.0000000000000000e+00 0.0000000000000000e+00 0.0000000000000000e+00  0.0000000000000000e+00 0.0000000000000000e+00 0.0000000000000000e+00  0.0000000000000000e+00 0.0000000000000000e+00 0.0000000000000000e+00  0.0000000000000000e+00 0.0000000000000000e+00 0.0000000000000000e+00  0.0000000000000000e+00 0.0000000000000000e+00 0.0000000000000000e+00  0.0000000000000000e+00 0.0000000000000000e+00 0.0000000000000000e+00  0.0000000000000000e+00 0.0000000000000000e+00 0.0000000000000000e+00  0.0000000000000000e+00 0.0000000000000000e+00 0.0000000000000000e+00  0.0000000000000000e+00 0.0000000000000000e+00 0.0000000000000000e+00  0.0000000000000000e+00 0.0000000000000000e+00 0.0000000000000000e+00  0.0000000000000000e+00 0.0000000000000000e+00 0.0000000000000000e+00  0.0000000000000000e+00 0.0000000000000000e+00 0.0000000000000000e+00  0.0000000000000000e+00 0.0000000000000000e+00 0.0000000000000000e+00  0.0000000000000000e+00 0.0000000000000000e+00 0.0000000000000000e+00  0.0000000000000000e+00 0.0000000000000000e+00 0.0000000000000000e+00  0.0000000000000000e+00 0.0000000000000000e+00 0.0000000000000000e+00  1.1635938822976837e+00 -2.8451267162983526e-03 0.0000000000000000e+00  1.1171942445572765e+00 3.5243464110268062e-03 0.0000000000000000e+00  9.6552397128904255e-01 -7.6338347713028457e-02 0.0000000000000000e+00  1.1187291049193324e+00 -1.9968366506870430e-03 0.0000000000000000e+00  1.1061847197639938e+00 -4.2664381539009614e-04 0.0000000000000000e+00  1.1326720909889327e+00 8.2958414408066650e-01 0.0000000000000000e+00  1.1347249416342657e+00 -2.4282325137335789e-02 0.0000000000000000e+00  8.8584581768077819e-01 1.7786326447446963e-03 0.0000000000000000e+00  1.3702576113197646e+00 -2.1557945855605043e-01 0.0000000000000000e+00  1.3928686452073076e+00 -3.3420518551698718e-02 0.0000000000000000e+00  1.1138845817441410e+00 -1.7022351471290339e-03 0.0000000000000000e+00  1.1405484992957116e+00 -3.4384536247955774e-03 0.0000000000000000e+00  1.1726846525601458e+00 -8.3038512116935369e-03 0.0000000000000000e+00  1.3885618226867098e+00 5.1856938515722900e-02 0.0000000000000000e+00  1.1264650903043600e+00 7.5416444188214273e-03 0.0000000000000000e+00  1.5290640076304989e+00 -3.5160375270875921e-01 0.0000000000000000e+00  1.4055065603768147e+00 -4.3032132466578991e-02 0.0000000000000000e+00  2.0805583758406474e+00 -9.4617494212492437e-02 0.0000000000000000e+00  1.3867029850361587e+00 -6.0482017324864183e-04 0.0000000000000000e+00  1.3548913181339206e+00 1.5378262286266943e-03 0.0000000000000000e+00  1.1356595029108949e+00 -4.2555525830655208e-02 0.0000000000000000e+00  5.7533415750211736e-01 2.2660241187220928e-01 0.0000000000000000e+00  2.1631663900085836e+00 -5.9271619755011973e-01 0.0000000000000000e+00  3.6644448176067962e-01 5.6023938742742405e-02 0.0000000000000000e+00  1.1194936504685422e+00 -2.8820794216660619e-03 0.0000000000000000e+00  1.6643665973804218e+00 3.3459679318073288e-01 0.0000000000000000e+00  1.2036321659600535e+00 8.1499644963641260e-01 0.0000000000000000e+00  8.4710391704369914e-01 -1.3271998416820687e-02 0.0000000000000000e+00  9.2307803152805590e-01 -3.0913146277708708e-03 0.0000000000000000e+00  1.0322752879501753e+00 -7.4473161661249966e-04 0.0000000000000000e+00  7.8520455977196346e-01 -1.1382431659870801e-02 0.0000000000000000e+00  1.1086645141662155e+00 -5.3333074464973242e-03 0.0000000000000000e+00  1.3515660371905012e+00 3.2775650247253424e-01 0.0000000000000000e+00  -2.1776223068289915e-01 1.0677987427620867e+00 0.0000000000000000e+00  1.1216995341237828e+00 7.4702993149205190e-03 0.0000000000000000e+00  1.0543788129954865e+00 -3.9006582766653699e-03 0.0000000000000000e+00  1.0653879262938448e+00 3.8489049145391341e-01 0.0000000000000000e+00  1.1257942382000461e+00 -6.3960366903519942e-03 0.0000000000000000e+00  1.1118040776606237e+00 4.9910192385139833e-04 0.0000000000000000e+00  1.7263841374589359e+00 -1.3084463265945452e-02 0.0000000000000000e+00  6.2852426454664412e-01 4.8463333358201582e-01 0.0000000000000000e+00  1.2391980418082680e+00 1.1512192318337852e-01 0.0000000000000000e+00  1.1086760477466830e+00 -3.5441570079501805e-01 0.0000000000000000e+00  1.1237864525142356e+00 -1.1033222244478625e-02 0.0000000000000000e+00  1.0765888992078918e+00 -4.2788723592393670e-03 0.0000000000000000e+00  1.0574824303915822e+00 1.2126345154961707e-03 0.0000000000000000e+00  1.3524030972175722e+00 -1.1532809070369897e-01 0.0000000000000000e+00  -1.4324751778083450e-01 7.2752531741447302e-02 0.0000000000000000e+00  1.0796783371179846e+00 2.2692127163855347e-03 0.0000000000000000e+00  6.5625009221763519e-01 0.0000000000000000e+00 0.0000000000000000e+00  8.6909219874513555e-01 -4.1487532819213475e-02 0.0000000000000000e+00  1.0528822702227159e+00 1.6155765737310482e-04 0.0000000000000000e+00  5.0895199358247001e-01 2.8487587242009491e-02 0.0000000000000000e+00  1.0628238846845253e+00 6.4249247799276780e-04 0.0000000000000000e+00  1.0887016608702949e+00 2.3461597136604798e-04 0.0000000000000000e+00  1.1079078590959923e+00 -3.0798311077890835e-03 0.0000000000000000e+00  1.1007239354728415e+00 -8.0808898096245438e-04 0.0000000000000000e+00  1.1785666831495742e+00 -1.2667277549892364e-01 0.0000000000000000e+00  1.1130641889947812e+00 7.6249585737901248e-04 0.0000000000000000e+00  1.4127587926731635e+00 -1.9748329810809587e-01 0.0000000000000000e+00  7.9536286562776740e-02 2.4971514153577644e-02 0.0000000000000000e+00  1.0665384354628082e+00 7.4069778896111249e-05 0.0000000000000000e+00  5.7034438350825400e-01 3.0020805446815462e-03 0.0000000000000000e+00  1.5525991116017026e+00 -5.2879710875599695e-01 0.0000000000000000e+00  1.0664221191849517e+00 -9.1148128977576084e-02 0.0000000000000000e+00  2.4526259304399120e-01 -3.8609470204411367e-01 0.0000000000000000e+00  2.2016117528681005e+00 -1.3994727843572483e+00 0.0000000000000000e+00  1.0805733582911448e+00 -6.6144231643268131e-04 0.0000000000000000e+00  1.1559166960762988e+00 -2.7285271027881617e-02 0.0000000000000000e+00  2.1538597507379813e+00 -2.0851987890710860e-01 0.0000000000000000e+00  -1.1095109008389537e+00 2.3728463866784125e-01 0.0000000000000000e+00  1.1111721805534438e+00 7.6314569067814980e-05 0.0000000000000000e+00  1.4607748054464176e+00 -9.6147202151148969e-02 0.0000000000000000e+00  1.1139351268035513e+00 6.2739759457407771e-04 0.0000000000000000e+00  1.1177409697676834e+00 1.1962718440984589e-03 0.0000000000000000e+00  1.0852190317496326e+00 -4.1028281442630044e-02 0.0000000000000000e+00  1.0535112906768189e+00 2.5561471810207665e-03 0.0000000000000000e+00  1.1237398668263658e+00 -2.9139200853540133e-03 0.0000000000000000e+00  1.0388464816652436e+00 -1.0250180882392089e-01 0.0000000000000000e+00  1.1190609186978844e+00 -2.1921189859260094e-04 0.0000000000000000e+00  1.1178175459048709e+00 -1.9229883042518281e-04 0.0000000000000000e+00  1.1217318519306589e+00 -8.6889342487475032e-04 0.0000000000000000e+00  1.0693182813091635e+00 1.1265794128380918e-03 0.0000000000000000e+00  1.1210544276025720e+00 9.3742900975243360e-04 0.0000000000000000e+00  9.5372832794714046e-01 -1.4954609381042416e-01 0.0000000000000000e+00  1.8691321767641937e+00 3.3939280568614177e-01 0.0000000000000000e+00  1.0431174778703236e+00 1.9880934293320419e-03 0.0000000000000000e+00  1.0352146330969592e+00 -3.2182495227376078e-03 0.0000000000000000e+00  5.8565906855341776e-01 1.6256203778906334e-01 0.0000000000000000e+00  1.9063422691061680e+00 5.7512053457541967e-01 0.0000000000000000e+00  1.0644290367138889e+00 -2.5074390650653999e-01 0.0000000000000000e+00  1.1029298015581359e+00 -1.6208138510855560e-02 0.0000000000000000e+00  1.0315765495741085e+00 -4.2074223239553492e-03 0.0000000000000000e+00  1.1208983048844430e+00 1.6348225750724841e-04 0.0000000000000000e+00  9.6436829215473041e-01 -1.9912662519238837e-02 0.0000000000000000e+00  1.0491621477680833e+00 3.0712392529165661e-03 0.0000000000000000e+00  1.0242456817925487e+00 -1.3265886855202837e-02 0.0000000000000000e+00  2.9309904900243633e-01 -7.0048769989394119e-02 0.0000000000000000e+00  6.2721029846500975e-01 -1.1797031689669954e-01 0.0000000000000000e+00  1.2767529191490059e+00 3.0642458788442038e-02 0.0000000000000000e+00  1.0380351734196329e+00 -1.8332212542720738e-03 0.0000000000000000e+00  1.2621673981999963e+00 -4.7442359324384709e-01 0.0000000000000000e+00  9.9641208851094809e-01 -8.0145547286029108e-03 0.0000000000000000e+00  1.0826702030367070e+00 1.0611073935783654e-02 0.0000000000000000e+00  1.1131681903236372e+00 -2.5223169101316835e-