<?xml version="1.0"?>
<VTKFile type="UnstructuredGrid"  version="0.1"  >
<UnstructuredGrid>
<Piece  NumberOfPoints="4269" NumberOfCells="8234">
<Points>
<DataArray  type="Float64"  NumberOfComponents="3"  format="ascii">0 1 0  0 0 0  7.5 0 0  7.5 1 0  1.197537668119028 0.5812868930080463 0  1.2 0.55 0  1.197537668119028 0.5187131069919538 0  1.190211303259031 0.4881966011250105 0  1.178201304837674 0.4592019000520907 0  1.161803398874989 0.4324429495415054 0  1.141421356237309 0.4085786437626905 0  1.117557050458495 0.3881966011250105 0  1.090798099947909 0.3717986951623264 0  1.06180339887499 0.3597886967409693 0  1.031286893008046 0.3524623318809725 0  1 0.35 0  0.9687131069919538 0.3524623318809725 0  0.9381966011250105 0.3597886967409694 0  0.9092019000520906 0.3717986951623264 0  0.8824429495415054 0.3881966011250105 0  0.8585786437626904 0.4085786437626905 0  0.8381966011250105 0.4324429495415054 0  0.8217986951623264 0.4592019000520907 0  0.8097886967409692 0.4881966011250107 0  0.8024623318809725 0.5187131069919539 0  0.8 0.55 0  0.8024623318809725 0.5812868930080463 0  0.8097886967409693 0.6118033988749896 0  0.8217986951623264 0.6407980999479095 0  0.8381966011250105 0.6675570504584947 0  0.8585786437626906 0.6914213562373096 0  0.8824429495415054 0.7118033988749896 0  0.9092019000520907 0.7282013048376736 0  0.9381966011250106 0.7402113032590307 0  0.9687131069919539 0.7475376681190276 0  1 0.75 0  1.031286893008046 0.7475376681190276 0  1.06180339887499 0.7402113032590307 0  1.090798099947909 0.7282013048376736 0  1.117557050458495 0.7118033988749896 0  1.141421356237309 0.6914213562373095 0  1.161803398874989 0.6675570504584947 0  1.178201304837674 0.6407980999479094 0  1.190211303259031 0.6118033988749896 0  3.75 0 0  3.75 1 0  1.875 0 0  1.875 1 0  0.9375 0 0  0.9375 1 0  1.40625 1 0  5.625 1 0  5.625 0 0  2.8125 1 0  2.8125 0 0  4.6875 0 0  4.6875 1 0  6.5625 0 0  6.5625 1 0  5.15625 0.5 0  4.21875 0.5 0  2.34375 0.5 0  3.28125 0.5 0  6.09375 0.5 0  7.5 0.5 0  6.897916666666666 0.5 0  1.842708333333333 0.5 0  0 0.5 0  0.46875 0 0  5.625 0.5302734375 0  7.03125 0 0  6.09375 1 0  2.8125 0.4697265625 0  3.28125 0 0  2.34375 1 0  2.34375 0 0  3.75 0.4697265625 0  4.21875 0 0  4.21875 1 0  4.6875 0.5302734375 0  3.28125 1 0  5.15625 0 0  6.09375 0 0  5.15625 1 0  0.46875 1 0  1.40625 0 0  7.03125 1 0  0.3954638734376499 0.5975780249976004 0  6.495833333333334 0.4072265624999998 0  5.859375 0.25 0  4.905729166666666 0.26513671875 0  4.453125 0.25 0  3.531770833333333 0.73486328125 0  3.968229166666667 0.73486328125 0  2.594270833333333 0.73486328125 0  3.030729166666667 0.73486328125 0  6.328125 0.75 0  7.198958333333334 0.3125000000000002 0  7.198958333333334 0.6874999999999998 0  5.390625 0.25 0  0 0.25 0  2.109375 0.75 0  2.109375 0.25 0  1.51921323205749 0.3418883887525936 0  1.522346610178253 0.6811769608297746 0  5.375456746419271 0.75 0  4.921875 0.76513671875 0  4.437956746419271 0.75 0  3.984375 0.23486328125 0  3.500456746419271 0.25 0  2.578125 0.23486328125 0  3.046875 0.23486328125 0  5.874543253580729 0.75 0  6.642123189445656 0.6909095493086836 0  6.746354166666666 0.2391688368055553 0  0.3197109619185111 0.2850049285972083 0  6.328125 0 0  0.6313375889370429 0.2351325552547357 0  0 0.75 0  6.252283381534729 0.2693808819694041 0  0.234375 1 0  6.948437500000001 0.7543055555555555 0  0.5934018769555939 0.7694151657947577 0  1.858854166666667 0.75 0  1.858854166666667 0.25 0  1.640625 0 0  2.093229166666667 0.5 0  7.5 0.25 0  3.282227579752604 0.75 0  7.5 0.75 0  1.171875 0 0  1.303539853147731 0.2235426933121065 0  5.148177083333333 0.2575683593749998 0  2.351822916666667 0.742431640625 0  1.640625 1 0  4.202380413457425 0.7645435094236485 0  3.047822985053062 0.4701848030090332 0  2.577177014946938 0.4701848030090332 0  4.672792740482199 0.76513671875 0  4.922822985053062 0.5298151969909668 0  5.390593497949761 0.5156244924311331 0  5.610292740482199 0.76513671875 0  3.516602579752604 0.5 0  4.45496853898097 0.4865915990446593 0  5.85753146101903 0.4865915990446593 0  3.749511210123698 0.23486328125 0  3.983397420247396 0.4999999999999999 0  2.343497975411212 0.2346270081980111 0  4.219002024588788 0.2346270081980111 0  0.703125 0 0  2.8125 0.2343755075688669 0  3.046875 0 0  2.578125 0 0  3.515625 0 0  3.984375 0 0  4.453125 1 0  5.390625 1 0  2.109375 0 0  2.109375 1 0  5.625 0.2921402030705575 0  5.390625 0 0  7.265625 0 0  6.796875 0 0  6.328125 1 0  3.046875 1 0  2.578125 1 0  3.984375 1 0  3.515625 1 0  4.453125 0 0  4.921875 0 0  5.859375 0 0  0.703125 1 0  1.171875 1 0  7.265625 1 0  4.921875 1 0  5.859375 1 0  0.234375 0 0  6.796875 1 0  6.980310975276531 0.2285890127127066 0  5.149170481934885 0.772689292163473 0  3.274170481934884 0.2273107078365268 0  6.101334126790364 0.7722468376159667 0  4.678005340872584 0.3000799877067239 0  2.8125 0.6921051326382495 0  3.75 0.6921051326382495 0  0.3515624999999999 0.8134571721668546 0  0.4990405774417521 0.4070099317153735 0  0.1789273931360182 0.625 0  6.31239060814315 0.5298877111157968 0  6.456979773992304 0.1917956348713352 0  6.699870808919271 0.4406293402777773 0  1.337539480965883 0.7944303676599538 0  6.058675797563041 0.2019812164653516 0  0.8203125 0.1643029084422534 0  0.1480856513011711 0.375 0  1.090769294689562 0.1719186776982972 0  7.291088163206459 0.5 0  7.094502414936563 0.5197902199074071 0  0.6046212059042245 0.5730066483871106 0  1.707231580809486 0.6342709161352207 0  1.685961352504593 0.8193269193390785 0  1.374721602852827 0.4600373025865813 0  6.486415510043844 0.5916440776477192 0  1.5234375 0.1508863828685116 0  1.707925830421689 0.3657739208189008 0  0.1674513225045584 0.8278776664019765 0  7.138268756771176 0.1438183366439137 0  7.1484375 0.8616388888888887 0  7.328562530764119 0.819498462930605 0  4.101073710123698 0.3678637200736647 0  1.693878467219965 0.1911955120941053 0  1.577566745468488 0.5110082404081502 0  6.6796875 0.8653871806883484 0  6.498039504430512 0.825568433346395 0  0.7562556668576472 0.8333197949571929 0  4.101045914668806 0.6255195807449272 0  5.030745188395182 0.382829047309028 0  2.476364945868651 0.6095868094762166 0  2.729359843907322 0.8460525663191247 0  2.9296875 0.8740763101564099 0  3.163518307559356 0.6254622797994247 0  3.666859843907322 0.8460525663191247 0  3.8671875 0.8740763101564099 0  4.8046875 0.12592368984359 0  3.14936031382311 0.8606990583876851 0  2.4609375 0.8747622921397776 0  5.023140791101972 0.1392266772452574 0  0 0.125 0  0.1759922923594607 0.1727589856739889 0  4.5703125 0.125 0  7.327755777818006 0.1766156770456191 0  5.5078125 0.125 0  5.719712725029036 0.1460701015352787 0  4.327848962028002 0.3674169956512513 0  5.982681121544351 0.3692637923021713 0  3.398926289876302 0.6245417594909667 0  5.281756792511996 0.3827993367299961 0  2.226822645963271 0.6252438868405666 0  2.234390064317166 0.8676616584526566 0  5.2734375 0.125 0  1.96796875 0.382568359375 0  2.234651037971999 0.3674169956512511 0  1.984114583333333 0.132568359375 0  1.9921875 0.875 0  1.984114583333333 0.632568359375 0  5.748733794462357 0.8678269127183313 0  3.3984375 0.875456329184688 0  1.512925924995415 0.8582958012121853 0  1.359299372802969 0.6275861864990343 0  4.810521420483513 0.4041767793635395 0  0.2996213306116602 0.455339710363317 0  5.999933717403708 0.6388425470751088 0  5.250033449003657 0.6388713364551682 0  3.631676045992918 0.3525406652400928 0  4.3359375 0.8816499670325881 0  4.343577437052484 0.6116511299909198 0  3.375033449003656 0.3611286635448316 0  5.763152151652243 0.6249404690537395 0  4.549347848347757 0.6249404690537396 0  5.5004588702411 0.6403667365776566 0  5.976118394847484 0.8816230218343086 0  5.054722486865804 0.6338007028640954 0  3.164542163493752 0.3520519332736524 0  2.445407482032355 0.3672168403687257 0  4.8046875 0.882568359375 0  4.1015625 0.117431640625 0  2.4609375 0.117431640625 0  2.695556894938151 0.3520510350344335 0  2.929443105061849 0.3520510350344335 0  3.881979231817319 0.3670559016511187 0  3.8671875 0.117431640625 0  4.805389247695744 0.6470047893641744 0  3.399370721942191 0.1184066543556767 0  5.274370721942192 0.881593345644323 0  3.618253274934649 0.1316869186284249 0  2.6953125 0.1171877537844335 0  2.9296875 0.1171877537844335 0  2.21873344389451 0.125 0  4.3359375 0.1171877625080073 0  0.6659898565672709 0.3986593551313873 0  7.363359022954956 0.3481046411219251 0  7.363359022954956 0.6518953588780749 0  5.487719392831826 0.3828237631077121 0  2.695054578344725 0.5809158475691247 0  2.944553877887707 0.5964065668438148 0  0.3515625 0.1201898858097106 0  5.5078125 1 0  4.5703125 1 0  5.031746201297604 0.882568359375 0  3.1640625 0 0  6.2109375 1 0  6.186845385763124 0.6336356480571081 0  4.1015625 1 0  6.810399074069772 0.6495574751396682 0  0.4740615253480797 0.2509287743856873 0  7.052064303830151 0.3684417917792242 0  6.195177069665382 0.1216488332168849 0  5.72300154718324 0.4112068202852788 0  3.879157465495092 0.6111892850691246 0  3.645760045247695 0.5809158475691247 0  6.868257400485771 0.3427840810237202 0  6.612030892260864 0.1521752713064389 0  6.615666885941117 0.3151079644097221 0  4.04296875 0.8633718902669071 0  1.183031453639096 0.8486801864185936 0  6.9140625 0 0  6.859079526500421 0.1398292786950638 0  6.808232443325651 0.7957411753922057 0  6.9140625 1 0  4.544955211100143 0.3675874343205077 0  1.0546875 1 0  6.122060236165557 0.3316791557072867 0  0.5859375 0 0  5.9765625 0 0  5.44921875 0.870984788733638 0  4.51171875 0.870984788733638 0  0.7608354256382215 0.2931261274224557 0  6.386875332239937 0.3156583003094978 0  6.985654756850997 0.6147408423643147 0  6.223797257919172 0.8535621912121121 0  5.936822413218736 0.1338376546337823 0  6.23933008800134 0.4095573603773768 0  0.5414022462152697 0.1305482677949959 0  6.331360438104348 0.1370086318183389 0  0.956404929269873 0.1374266563647954 0  1.2890625 1 0  0.691305981127761 0.6764829884281737 0  3.531251607241209 0.8678916320952239 0  2.59787442813022 
[...]
<PointData  Vectors="f_71627"> 
<DataArray  type="Float64"  Name="f_71627"  NumberOfComponents="3" format="ascii">0.0000000000000000e+00 0.0000000000000000e+00 0.0000000000000000e+00  0.0000000000000000e+00 0.0000000000000000e+00 0.0000000000000000e+00  0.0000000000000000e+00 0.0000000000000000e+00 0.0000000000000000e+00  0.0000000000000000e+00 0.0000000000000000e+00 0.0000000000000000e+00  0.0000000000000000e+00 0.0000000000000000e+00 0.0000000000000000e+00  0.0000000000000000e+00 0.0000000000000000e+00 0.0000000000000000e+00  0.0000000000000000e+00 0.0000000000000000e+00 0.0000000000000000e+00  0.0000000000000000e+00 0.0000000000000000e+00 0.0000000000000000e+00  0.0000000000000000e+00 0.0000000000000000e+00 0.0000000000000000e+00  0.0000000000000000e+00 0.0000000000000000e+00 0.0000000000000000e+00  0.0000000000000000e+00 0.0000000000000000e+00 0.0000000000000000e+00  0.0000000000000000e+00 0.0000000000000000e+00 0.0000000000000000e+00  0.0000000000000000e+00 0.0000000000000000e+00 0.0000000000000000e+00  0.0000000000000000e+00 0.0000000000000000e+00 0.0000000000000000e+00  0.0000000000000000e+00 0.0000000000000000e+00 0.0000000000000000e+00  0.0000000000000000e+00 0.0000000000000000e+00 0.0000000000000000e+00  0.0000000000000000e+00 0.0000000000000000e+00 0.0000000000000000e+00  0.0000000000000000e+00 0.0000000000000000e+00 0.0000000000000000e+00  0.0000000000000000e+00 0.0000000000000000e+00 0.0000000000000000e+00  0.0000000000000000e+00 0.0000000000000000e+00 0.0000000000000000e+00  0.0000000000000000e+00 0.0000000000000000e+00 0.0000000000000000e+00  0.0000000000000000e+00 0.0000000000000000e+00 0.0000000000000000e+00  0.0000000000000000e+00 0.0000000000000000e+00 0.0000000000000000e+00  0.0000000000000000e+00 0.0000000000000000e+00 0.0000000000000000e+00  0.0000000000000000e+00 0.0000000000000000e+00 0.0000000000000000e+00  0.0000000000000000e+00 0.0000000000000000e+00 0.0000000000000000e+00  0.0000000000000000e+00 0.0000000000000000e+00 0.0000000000000000e+00  0.0000000000000000e+00 0.0000000000000000e+00 0.0000000000000000e+00  0.0000000000000000e+00 0.0000000000000000e+00 0.0000000000000000e+00  0.0000000000000000e+00 0.0000000000000000e+00 0.0000000000000000e+00  0.0000000000000000e+00 0.0000000000000000e+00 0.0000000000000000e+00  0.0000000000000000e+00 0.0000000000000000e+00 0.0000000000000000e+00  0.0000000000000000e+00 0.0000000000000000e+00 0.0000000000000000e+00  0.0000000000000000e+00 0.0000000000000000e+00 0.0000000000000000e+00  0.0000000000000000e+00 0.0000000000000000e+00 0.0000000000000000e+00  0.0000000000000000e+00 0.0000000000000000e+00 0.0000000000000000e+00  0.0000000000000000e+00 0.0000000000000000e+00 0.0000000000000000e+00  0.0000000000000000e+00 0.0000000000000000e+00 0.0000000000000000e+00  0.0000000000000000e+00 0.0000000000000000e+00 0.0000000000000000e+00  0.0000000000000000e+00 0.0000000000000000e+00 0.0000000000000000e+00  0.0000000000000000e+00 0.0000000000000000e+00 0.0000000000000000e+00  0.0000000000000000e+00 0.0000000000000000e+00 0.0000000000000000e+00  0.0000000000000000e+00 0.0000000000000000e+00 0.0000000000000000e+00  0.0000000000000000e+00 0.0000000000000000e+00 0.0000000000000000e+00  0.0000000000000000e+00 0.0000000000000000e+00 0.0000000000000000e+00  0.0000000000000000e+00 0.0000000000000000e+00 0.0000000000000000e+00  0.0000000000000000e+00 0.0000000000000000e+00 0.0000000000000000e+00  0.0000000000000000e+00 0.0000000000000000e+00 0.0000000000000000e+00  0.0000000000000000e+00 0.0000000000000000e+00 0.0000000000000000e+00  0.0000000000000000e+00 0.0000000000000000e+00 0.0000000000000000e+00  0.0000000000000000e+00 0.0000000000000000e+00 0.0000000000000000e+00  0.0000000000000000e+00 0.0000000000000000e+00 0.0000000000000000e+00  0.0000000000000000e+00 0.0000000000000000e+00 0.0000000000000000e+00  0.0000000000000000e+00 0.0000000000000000e+00 0.0000000000000000e+00  0.0000000000000000e+00 0.0000000000000000e+00 0.0000000000000000e+00  0.0000000000000000e+00 0.0000000000000000e+00 0.0000000000000000e+00  0.0000000000000000e+00 0.0000000000000000e+00 0.0000000000000000e+00  0.0000000000000000e+00 0.0000000000000000e+00 0.0000000000000000e+00  0.0000000000000000e+00 0.0000000000000000e+00 0.0000000000000000e+00  1.1242111177792116e+00 -1.3280791109745204e-04 0.0000000000000000e+00  1.1314016611499134e+00 -3.3178602644706123e-02 0.0000000000000000e+00  1.6919119323978193e+00 -3.2857427423672264e-01 0.0000000000000000e+00  1.6685430927691147e+00 2.7647549745777961e-01 0.0000000000000000e+00  1.1238083057063464e+00 -6.4520296603328147e-04 0.0000000000000000e+00  1.5000002033410222e+00 0.0000000000000000e+00 0.0000000000000000e+00  1.2010948989951766e+00 -2.8139519899047275e-03 0.0000000000000000e+00  1.3089181159499474e+00 1.4724447375756822e+00 0.0000000000000000e+00  1.5000002033410222e+00 0.0000000000000000e+00 0.0000000000000000e+00  0.0000000000000000e+00 0.0000000000000000e+00 0.0000000000000000e+00  1.1308513405249838e+00 2.8015598567692802e-04 0.0000000000000000e+00  0.0000000000000000e+00 0.0000000000000000e+00 0.0000000000000000e+00  0.0000000000000000e+00 0.0000000000000000e+00 0.0000000000000000e+00  2.0280119235306397e+00 5.7640772196808343e-01 0.0000000000000000e+00  0.0000000000000000e+00 0.0000000000000000e+00 0.0000000000000000e+00  0.0000000000000000e+00 0.0000000000000000e+00 0.0000000000000000e+00  0.0000000000000000e+00 0.0000000000000000e+00 0.0000000000000000e+00  1.0632109510213252e+00 -2.3693750265015001e-01 0.0000000000000000e+00  0.0000000000000000e+00 0.0000000000000000e+00 0.0000000000000000e+00  0.0000000000000000e+00 0.0000000000000000e+00 0.0000000000000000e+00  1.1283867168817439e+00 -4.9656519645264819e-03 0.0000000000000000e+00  0.0000000000000000e+00 0.0000000000000000e+00 0.0000000000000000e+00  0.0000000000000000e+00 0.0000000000000000e+00 0.0000000000000000e+00  0.0000000000000000e+00 0.0000000000000000e+00 0.0000000000000000e+00  0.0000000000000000e+00 0.0000000000000000e+00 0.0000000000000000e+00  0.0000000000000000e+00 0.0000000000000000e+00 0.0000000000000000e+00  0.0000000000000000e+00 0.0000000000000000e+00 0.0000000000000000e+00  0.0000000000000000e+00 0.0000000000000000e+00 0.0000000000000000e+00  1.3725397582931402e+00 3.3440618581627932e-03 0.0000000000000000e+00  1.1478730846970187e+00 -4.4881129092559525e-03 0.0000000000000000e+00  1.1293905509829947e+00 5.9547276193361613e-04 0.0000000000000000e+00  1.1121542397861350e+00 -4.1134281674011595e-04 0.0000000000000000e+00  1.0995533762547964e+00 -6.5688213192686999e-03 0.0000000000000000e+00  1.5758589907936211e+00 -1.8732827614590782e-02 0.0000000000000000e+00  1.2092785214676087e+00 -5.6916613719744859e-02 0.0000000000000000e+00  5.2076183411235399e-01 -7.9550104345729311e-01 0.0000000000000000e+00  1.1520159347667531e+00 6.5657263146810985e-01 0.0000000000000000e+00  1.1288208765143524e+00 2.7982525630543681e-03 0.0000000000000000e+00  8.4141509288580874e-01 -3.1260167814544603e-03 0.0000000000000000e+00  9.6937905123621793e-01 1.4302354222848822e-02 0.0000000000000000e+00  1.1156248099545594e+00 2.1085312851009175e-04 0.0000000000000000e+00  1.1250001525057669e+00 0.0000000000000000e+00 0.0000000000000000e+00  1.7042196627855988e+00 -2.3276274691434798e-01 0.0000000000000000e+00  1.1181824771816613e+00 6.8497006462340859e-02 0.0000000000000000e+00  1.7069966316733651e+00 1.3062661635168160e-01 0.0000000000000000e+00  1.6194656681977493e-01 -8.8178449222242128e-01 0.0000000000000000e+00  1.1270090426752368e+00 1.1051073383971544e-03 0.0000000000000000e+00  1.1317095911863921e+00 1.1635861837471196e-03 0.0000000000000000e+00  1.1416041076246051e+00 -7.4128708257856727e-03 0.0000000000000000e+00  1.0418021583424992e+00 -5.2891040127696833e-02 0.0000000000000000e+00  7.7821169792352751e-01 -1.5895055009128803e-01 0.0000000000000000e+00  9.9006722384514056e-01 -5.1997724853678617e-01 0.0000000000000000e+00  7.5653305770993540e-01 3.2047346450288156e-01 0.0000000000000000e+00  1.1310430008132901e+00 -1.5710323196425399e-03 0.0000000000000000e+00  1.1097669726846604e+00 -1.4341134144402014e-03 0.0000000000000000e+00  1.1251620620635570e+00 -7.5340066263327194e-03 0.0000000000000000e+00  1.2198102116330249e+00 -6.3026183811625558e-02 0.0000000000000000e+00  0.0000000000000000e+00 0.0000000000000000e+00 0.0000000000000000e+00  1.2037216562549273e+00 -2.9378788268181599e-01 0.0000000000000000e+00  1.1250001525057669e+00 0.0000000000000000e+00 0.0000000000000000e+00  1.1332345164789634e+00 -7.1846644048309072e-04 0.0000000000000000e+00  0.0000000000000000e+00 0.0000000000000000e+00 0.0000000000000000e+00  1.2650748024530700e+00 -2.6708894224905752e-03 0.0000000000000000e+00  1.0866600496587357e+00 2.3064853057251841e-01 0.0000000000000000e+00  4.8220161003598511e-01 2.6049455230826374e-01 0.0000000000000000e+00  1.8135133492776943e+00 6.6899354541320366e-01 0.0000000000000000e+00  0.0000000000000000e+00 0.0000000000000000e+00 0.0000000000000000e+00  1.2295270518020884e+00 3.6814926740736464e-01 0.0000000000000000e+00  1.1250001525057669e+00 0.0000000000000000e+00 0.0000000000000000e+00  1.1836249503322609e+00 7.3834756384054367e-01 0.0000000000000000e+00  1.1250001525057669e+00 0.0000000000000000e+00 0.0000000000000000e+00  0.0000000000000000e+00 0.0000000000000000e+00 0.0000000000000000e+00  2.3136622438986696e+00 -1.3168589346490361e-01 0.0000000000000000e+00  1.1177546672805054e+00 1.4996831627360206e-04 0.0000000000000000e+00  1.0628027000817606e+00 -2.8101589018320072e-01 0.0000000000000000e+00  0.0000000000000000e+00 0.0000000000000000e+00 0.0000000000000000e+00  1.1660105081028962e+00 -1.6223765539898103e-02 0.0000000000000000e+00  2.1122222711762912e+00 1.1536858235108050e+00 0.0000000000000000e+00  2.1212786624250732e+00 -1.1058804905104243e+00 0.0000000000000000e+00  1.1356525382329958e+00 -1.9219176094507670e-03 0.0000000000000000e+00  1.1241635976667590e+00 -1.2596729284356037e-03 0.0000000000000000e+00  1.1272091226790539e+00 1.4750457865032765e-03 0.0000000000000000e+00  1.1293920655932139e+00 1.2664481090261641e-03 0.0000000000000000e+00  9.8474860925927121e-01 -1.8764589380758442e-01 0.0000000000000000e+00  1.1246571187005534e+00 -1.2734137336046197e-02 0.0000000000000000e+00  1.1339622611915741e+00 -2.6008942088354007e-04 0.0000000000000000e+00  9.4250420255800305e-01 -9.3575658515069354e-02 0.0000000000000000e+00  1.1251346540377571e+00 -9.2513739625112237e-02 0.0000000000000000e+00  6.1510638405595686e-01 3.2313099919007365e-01 0.0000000000000000e+00  1.0826484590084897e+00 -1.9834289085812733e-02 0.0000000000000000e+00  0.0000000000000000e+00 0.0000000000000000e+00 0.0000000000000000e+00  1.6218351195945082e+00 1.9740255628895953e-01 0.0000000000000000e+00  0.0000000000000000e+00 0.0000000000000000e+00 0.0000000000000000e+00  0.0000000000000000e+00 0.0000000000000000e+00 0.0000000000000000e+00  0.0000000000000000e+00 0.0000000000000000e+00 0.0000000000000000e+00  0.0000000000000000e+00 0.0000000000000000e+00 0.0000000000000000e+00  0.0000000000000000e+00 0.0000000000000000e+00 0.0000000000000000e+00  0.0000000000000000e+00 0.0000000000000000e+00 0.0000000000000000e+00  0.0000000000000000e+00 0.0000000000000000e+00 0.0000000000000000e+00  0.0000000000000000e+00 0.0000000000000000e+00 0.0000000000000000e+00  1.1179324383043885e+00 3.2757425375685713e-04 0.0000000000000000e+00  0.0000000000000000e+00 0.0000000000000000e+00 0.0000000000000000e+00  0.0000000000000000e+00 0.0000000000000000e+00 0.0000000000000000e+00  0.0000000000000000e+00 0.0000000000000000e+00 0.0000000000000000e+00  0.0000000000000000e+00 0.0000000000000000e+00 0.0000000000000000e+00  0.0000000000000000e+00 0.0000000000000000e+00 0.0000000000000000e+00  0.0000000000000000e+00 0.0000000000000000e+00 0.0000000000000000e+00  0.0000000000000000e+00 0.0000000000000000e+00 0.0000000000000000e+00  0.0000000000000000e+00 0.0000000000000000e+00 0.0000000000000000e+00  0.0000000000000000e+00 0.0000000000000000e+00 0.0000000000000000e+00  0.0000000000000000e+00 0.0000000000000000e+00 0.0000000000000000e+00  0.0000000000000000e+00 0.0000000000000000e+00 0.0000000000000000e+00  0.0000000000000000e+00 0.0000000000000000e+00 0.0000000000000000e+00  0.0000000000000000e+00 0.0000000000000000e+00 0.0000000000000000e+00  0.0000000000000000e+00 0.0000000000000000e+00 0.0000000000000000e+00  0.0000000000000000e+00 0.0000000000000000e+00 0.0000000000000000e+00  0.0000000000000000e+00 0.0000000000000000e+00 0.0000000000000000e+00  0.0000000000000000e+00 0.0000000000000000e+00 0.0000000000000000e+00  0.0000000000000000e+00 0.0000000000000000e+00 0.0000000000000000e+00  1.1691916230537891e+00 -1.8265580912830122e-03 0.0000000000000000e+00  1.1286257413885985e+00 1.6091910279539066e-03 0.0000000000000000e+00  5.1513130626302883e-01 -1.4604456028030166e-01 0.0000000000000000e+00  1.1307675892067690e+00 -2.3974903046428951e-03 0.0000000000000000e+00  1.1128113749589534e+00 -4.4164662013496045e-03 0.0000000000000000e+00  8.7445928099912429e-01 3.6471702726891725e-01 0.0000000000000000e+00  1.3412025380892747e+00 -2.4202312941233026e-01 0.0000000000000000e+00  9.2948901017228724e-01 3.9320270960106291e-02 0.0000000000000000e+00  1.3367204235896568e+00 -1.4132788887289588e-01 0.0000000000000000e+00  1.3959327301599029e+00 8.1562351886518350e-03 0.0000000000000000e+00  1.1260673354632602e+00 -1.2105265187843303e-03 0.0000000000000000e+00  1.1525132958091935e+00 2.7339598115520168e-03 0.0000000000000000e+00  1.1809121112390506e+00 -7.0909410018308678e-03 0.0000000000000000e+00  2.0809561340753486e+00 -3.3413474160511741e-01 0.0000000000000000e+00  1.1342348273411937e+00 3.3182219308648063e-03 0.0000000000000000e+00  1.3904736846100905e+00 -3.4221396677934546e-01 0.0000000000000000e+00  1.4032248009652633e+00 -9.5657295164652215e-03 0.0000000000000000e+00  1.9712213850872573e+00 -2.0584822129277983e-01 0.0000000000000000e+00  1.3825570541462198e+00 2.7800531057497360e-03 0.0000000000000000e+00  1.3580310766149954e+00 3.3215933351789305e-03 0.0000000000000000e+00  1.1570882829436573e+00 5.5197426607028761e-02 0.0000000000000000e+00  -6.0973686636221092e-01 -3.3231765302215982e-01 0.0000000000000000e+00  1.1914897467881884e+00 -1.7085621790863773e-01 0.0000000000000000e+00  -6.4916054485834063e-01 -9.3891868811065216e-01 0.0000000000000000e+00  1.1298105263023150e+00 -1.7366522927677141e-03 0.0000000000000000e+00  2.1854592746870867e+00 2.7730620899438846e-01 0.0000000000000000e+00  2.2140560831629794e+00 1.0187022147370997e+00 0.0000000000000000e+00  8.5831310928421056e-01 1.4662413095513537e-02 0.0000000000000000e+00  9.0886350249780745e-01 -2.8032755361215469e-03 0.0000000000000000e+00  1.0224664764296789e+00 -1.6294646631673604e-03 0.0000000000000000e+00  7.9451835658100733e-01 -5.8594616281663304e-03 0.0000000000000000e+00  1.0939342298582455e+00 -5.0745407573059169e-02 0.0000000000000000e+00  2.0743471372910722e+00 6.2267146718177824e-01 0.0000000000000000e+00  -1.8288307316285352e-02 -3.5277219097230061e-01 0.0000000000000000e+00  1.1060593903877454e+00 7.3191129049306148e-03 0.0000000000000000e+00  1.0606145946544439e+00 -3.8534831073010799e-03 0.0000000000000000e+00  1.2203105870486606e+00 4.4172629331830360e-01 0.0000000000000000e+00  1.1644561014097001e+00 -4.7665314556289376e-02 0.0000000000000000e+00  1.1217936242808522e+00 -4.6683438038029948e-04 0.0000000000000000e+00  1.3707284367583898e+00 -7.9485522624898874e-01 0.0000000000000000e+00  -3.5089265824645582e-01 -2.6793355049261564e-01 0.0000000000000000e+00  -2.5809453979674335e-01 2.8034427038445903e-01 0.0000000000000000e+00  1.7262092757886383e+00 6.3977473024326570e-01 0.0000000000000000e+00  1.3623160855422476e+00 -1.1073881378163726e-01 0.0000000000000000e+00  1.1251524048080428e+00 -1.2029119231788453e-02 0.0000000000000000e+00  1.0397447196221190e+00 4.5969019602024096e-04 0.0000000000000000e+00  4.2438611837491746e-01 4.8553071264641184e-01 0.0000000000000000e+00  5.0352295588013340e-01 -1.7664387650876906e-01 0.0000000000000000e+00  1.0704741580178405e+00 1.9693083849722623e-03 0.0000000000000000e+00  6.5625008896169745e-01 0.0000000000000000e+00 0.0000000000000000e+00  8.5923852984121296e-01 -1.6246449374396770e-02 0.0000000000000000e+00  1.0322850421819496e+00 -1.5673117819842881e-03 0.0000000000000000e+00  5.3990059180679884e-01 2.5352435311724240e-02 0.0000000000000000e+00  1.0497101630531775e+00 1.3982784694779660e-03 0.0000000000000000e+00  1.0887894021289495e+00 3.0197703159837408e-04 0.0000000000000000e+00  1.1077873171563128e+00 -2.1531167338938430e-02 0.0000000000000000e+00  1.1121412123729650e+00 -5.7135460512636497e-04 0.0000000000000000e+00  1.5163452882904482e+00 1.5681845784299211e-01 0.0000000000000000e+00  1.1228690383067856e+00 5.4512537998488984e-04 0.0000000000000000e+00  1.5040744083092188e+00 -2.8010554653182829e-01 0.0000000000000000e+00  7.5289109802349086e-01 -9.5132949731944194e-02 0.0000000000000000e+00  1.0506915953883342e+00 -5.4277241726545110e-04 0.0000000000000000e+00  1.4986134229034760e+00 7.0336753216320202e-01 0.0000000000000000e+00  1.1762613706110761e+00 1.1409941849012682e-01 0.0000000000000000e+00  7.9156406700259052e-01 -2.0522863373577730e-02 0.0000000000000000e+00  1.3236676483922905e+00 -3.1265582893476272e-02 0.0000000000000000e+00  8.7362997274514775e-01 6.1634826744430560e-01 0.0000000000000000e+00  1.0671264850538200e+00 3.4588601062689623e-04 0.0000000000000000e+00  1.3434189486458072e+00 2.2928573484616296e-02 0.0000000000000000e+00  1.5221472270702701e+00 -3.7813732980552561e-01 0.0000000000000000e+00  -5.6218210009896227e-02 -4.3037828988137194e-01 0.0000000000000000e+00  1.1206630697895803e+00 -3.0517281394807140e-03 0.0000000000000000e+00  1.4542098624094693e+00 -3.4126517622872533e-02 0.0000000000000000e+00  1.1282295004877116e+00 -2.9792391682358804e-04 0.0000000000000000e+00  1.1301915416689197e+00 4.9214392088939296e-04 0.0000000000000000e+00  8.8204825406532572e-01 -2.1057980926366934e-01 0.0000000000000000e+00  1.0464413776374739e+00 1.4699022983490938e-03 0.0000000000000000e+00  1.1410287362472764e+00 -2.0834773870761672e-02 0.0000000000000000e+00  7.2938785434537645e-01 -2.9666077418308795e-01 0.0000000000000000e+00  1.1315295594885353e+00 -2.9216182618940274e-04 0.0000000000000000e+00  1.1323229251203826e+00 -7.3542904240210356e-03 0.0000000000000000e+00  1.1339662872541367e+00 -4.7604139782125810e-04 0.0000000000000000e+00  1.0422768930318795e+00 5.7654340958062105e-04 0.0000000000000000e+00  1.1317663614935833e+00 -3.3864671313378793e-04 0.0000000000000000e+00  9.0538151989498539e-01 2.9935789337943447e-01 0.0000000000000000e+00  1.6763239696087209e+00 -4.9391758759980303e-01 0.0000000000000000e+00  1.0248350698664306e+00 1.5395794020901135e-03 0.0000000000000000e+00  9.8975678587114868e-01 -1.0554128364688232e-02 0.0000000000000000e+00  6.3302665750166620e-01 -1.4725615942446705e-02 0.0000000000000000e+00  2.4720769363961823e+00 -5.2163954147000202e-01 0.0000000000000000e+00  1.9144393007849470e+00 9.4744784089655620e-01 0.0000000000000000e+00  1.0479671450841050e+00 -1.1160534458334451e-01 0.0000000000000000e+00  9.4268014518863308e-01 -2.5447000199014167e-02 0.0000000000000000e+00  1.1327454173881517e+00 -2.3092354227505973e-03 0.0000000000000000e+00  6.7365420041090296e-01 -5.8293115956517934e-02 0.0000000000000000e+00  1.0297597950257615e+00 8.2058281100357792e-04 0.0000000000000000e+00  8.3019416981004102e-01 -5.3829204978071005e-02 0.0000000000000000e+00  8.0820374262401429e-01 -1.0909434976677654e-01 0.0000000000000000e+00  7.0210625144589067e-01 8.5053674000924590e-02 0.0000000000000000e+00  6.8535630479327903e-01 -5.3919277687918890e-02 0.0000000000000000e+00  1.0085614189021059e+00 -4.6799015327813010e-03 0.0000000000000000e+00  1.1957971278953612e+00 -3.8274786269253797e-01 0.0000000000000000e+00  1.0022546859356356e+00 -7.7572482098503381e-03 0.0000000000000000e+00  1.0889664353078150e+00 1.0507868557287071e-02 0.0000000000000000e+00  1.1220808349624496e+00 -3.33125612795