<?xml version="1.0"?>
<VTKFile type="UnstructuredGrid"  version="0.1"  >
<UnstructuredGrid>
<Piece  NumberOfPoints="4269" NumberOfCells="8234">
<Points>
<DataArray  type="Float64"  NumberOfComponents="3"  format="ascii">0 1 0  0 0 0  7.5 0 0  7.5 1 0  1.197537668119028 0.5812868930080463 0  1.2 0.55 0  1.197537668119028 0.5187131069919538 0  1.190211303259031 0.4881966011250105 0  1.178201304837674 0.4592019000520907 0  1.161803398874989 0.4324429495415054 0  1.141421356237309 0.4085786437626905 0  1.117557050458495 0.3881966011250105 0  1.090798099947909 0.3717986951623264 0  1.06180339887499 0.3597886967409693 0  1.031286893008046 0.3524623318809725 0  1 0.35 0  0.9687131069919538 0.3524623318809725 0  0.9381966011250105 0.3597886967409694 0  0.9092019000520906 0.3717986951623264 0  0.8824429495415054 0.3881966011250105 0  0.8585786437626904 0.4085786437626905 0  0.8381966011250105 0.4324429495415054 0  0.8217986951623264 0.4592019000520907 0  0.8097886967409692 0.4881966011250107 0  0.8024623318809725 0.5187131069919539 0  0.8 0.55 0  0.8024623318809725 0.5812868930080463 0  0.8097886967409693 0.6118033988749896 0  0.8217986951623264 0.6407980999479095 0  0.8381966011250105 0.6675570504584947 0  0.8585786437626906 0.6914213562373096 0  0.8824429495415054 0.7118033988749896 0  0.9092019000520907 0.7282013048376736 0  0.9381966011250106 0.7402113032590307 0  0.9687131069919539 0.7475376681190276 0  1 0.75 0  1.031286893008046 0.7475376681190276 0  1.06180339887499 0.7402113032590307 0  1.090798099947909 0.7282013048376736 0  1.117557050458495 0.7118033988749896 0  1.141421356237309 0.6914213562373095 0  1.161803398874989 0.6675570504584947 0  1.178201304837674 0.6407980999479094 0  1.190211303259031 0.6118033988749896 0  3.75 0 0  3.75 1 0  1.875 0 0  1.875 1 0  0.9375 0 0  0.9375 1 0  1.40625 1 0  5.625 1 0  5.625 0 0  2.8125 1 0  2.8125 0 0  4.6875 0 0  4.6875 1 0  6.5625 0 0  6.5625 1 0  5.15625 0.5 0  4.21875 0.5 0  2.34375 0.5 0  3.28125 0.5 0  6.09375 0.5 0  7.5 0.5 0  6.897916666666666 0.5 0  1.842708333333333 0.5 0  0 0.5 0  0.46875 0 0  5.625 0.5302734375 0  7.03125 0 0  6.09375 1 0  2.8125 0.4697265625 0  3.28125 0 0  2.34375 1 0  2.34375 0 0  3.75 0.4697265625 0  4.21875 0 0  4.21875 1 0  4.6875 0.5302734375 0  3.28125 1 0  5.15625 0 0  6.09375 0 0  5.15625 1 0  0.46875 1 0  1.40625 0 0  7.03125 1 0  0.3954638734376499 0.5975780249976004 0  6.495833333333334 0.4072265624999998 0  5.859375 0.25 0  4.905729166666666 0.26513671875 0  4.453125 0.25 0  3.531770833333333 0.73486328125 0  3.968229166666667 0.73486328125 0  2.594270833333333 0.73486328125 0  3.030729166666667 0.73486328125 0  6.328125 0.75 0  7.198958333333334 0.3125000000000002 0  7.198958333333334 0.6874999999999998 0  5.390625 0.25 0  0 0.25 0  2.109375 0.75 0  2.109375 0.25 0  1.51921323205749 0.3418883887525936 0  1.522346610178253 0.6811769608297746 0  5.375456746419271 0.75 0  4.921875 0.76513671875 0  4.437956746419271 0.75 0  3.984375 0.23486328125 0  3.500456746419271 0.25 0  2.578125 0.23486328125 0  3.046875 0.23486328125 0  5.874543253580729 0.75 0  6.642123189445656 0.6909095493086836 0  6.746354166666666 0.2391688368055553 0  0.3197109619185111 0.2850049285972083 0  6.328125 0 0  0.6313375889370429 0.2351325552547357 0  0 0.75 0  6.252283381534729 0.2693808819694041 0  0.234375 1 0  6.948437500000001 0.7543055555555555 0  0.5934018769555939 0.7694151657947577 0  1.858854166666667 0.75 0  1.858854166666667 0.25 0  1.640625 0 0  2.093229166666667 0.5 0  7.5 0.25 0  3.282227579752604 0.75 0  7.5 0.75 0  1.171875 0 0  1.303539853147731 0.2235426933121065 0  5.148177083333333 0.2575683593749998 0  2.351822916666667 0.742431640625 0  1.640625 1 0  4.202380413457425 0.7645435094236485 0  3.047822985053062 0.4701848030090332 0  2.577177014946938 0.4701848030090332 0  4.672792740482199 0.76513671875 0  4.922822985053062 0.5298151969909668 0  5.390593497949761 0.5156244924311331 0  5.610292740482199 0.76513671875 0  3.516602579752604 0.5 0  4.45496853898097 0.4865915990446593 0  5.85753146101903 0.4865915990446593 0  3.749511210123698 0.23486328125 0  3.983397420247396 0.4999999999999999 0  2.343497975411212 0.2346270081980111 0  4.219002024588788 0.2346270081980111 0  0.703125 0 0  2.8125 0.2343755075688669 0  3.046875 0 0  2.578125 0 0  3.515625 0 0  3.984375 0 0  4.453125 1 0  5.390625 1 0  2.109375 0 0  2.109375 1 0  5.625 0.2921402030705575 0  5.390625 0 0  7.265625 0 0  6.796875 0 0  6.328125 1 0  3.046875 1 0  2.578125 1 0  3.984375 1 0  3.515625 1 0  4.453125 0 0  4.921875 0 0  5.859375 0 0  0.703125 1 0  1.171875 1 0  7.265625 1 0  4.921875 1 0  5.859375 1 0  0.234375 0 0  6.796875 1 0  6.980310975276531 0.2285890127127066 0  5.149170481934885 0.772689292163473 0  3.274170481934884 0.2273107078365268 0  6.101334126790364 0.7722468376159667 0  4.678005340872584 0.3000799877067239 0  2.8125 0.6921051326382495 0  3.75 0.6921051326382495 0  0.3515624999999999 0.8134571721668546 0  0.4990405774417521 0.4070099317153735 0  0.1789273931360182 0.625 0  6.31239060814315 0.5298877111157968 0  6.456979773992304 0.1917956348713352 0  6.699870808919271 0.4406293402777773 0  1.337539480965883 0.7944303676599538 0  6.058675797563041 0.2019812164653516 0  0.8203125 0.1643029084422534 0  0.1480856513011711 0.375 0  1.090769294689562 0.1719186776982972 0  7.291088163206459 0.5 0  7.094502414936563 0.5197902199074071 0  0.6046212059042245 0.5730066483871106 0  1.707231580809486 0.6342709161352207 0  1.685961352504593 0.8193269193390785 0  1.374721602852827 0.4600373025865813 0  6.486415510043844 0.5916440776477192 0  1.5234375 0.1508863828685116 0  1.707925830421689 0.3657739208189008 0  0.1674513225045584 0.8278776664019765 0  7.138268756771176 0.1438183366439137 0  7.1484375 0.8616388888888887 0  7.328562530764119 0.819498462930605 0  4.101073710123698 0.3678637200736647 0  1.693878467219965 0.1911955120941053 0  1.577566745468488 0.5110082404081502 0  6.6796875 0.8653871806883484 0  6.498039504430512 0.825568433346395 0  0.7562556668576472 0.8333197949571929 0  4.101045914668806 0.6255195807449272 0  5.030745188395182 0.382829047309028 0  2.476364945868651 0.6095868094762166 0  2.729359843907322 0.8460525663191247 0  2.9296875 0.8740763101564099 0  3.163518307559356 0.6254622797994247 0  3.666859843907322 0.8460525663191247 0  3.8671875 0.8740763101564099 0  4.8046875 0.12592368984359 0  3.14936031382311 0.8606990583876851 0  2.4609375 0.8747622921397776 0  5.023140791101972 0.1392266772452574 0  0 0.125 0  0.1759922923594607 0.1727589856739889 0  4.5703125 0.125 0  7.327755777818006 0.1766156770456191 0  5.5078125 0.125 0  5.719712725029036 0.1460701015352787 0  4.327848962028002 0.3674169956512513 0  5.982681121544351 0.3692637923021713 0  3.398926289876302 0.6245417594909667 0  5.281756792511996 0.3827993367299961 0  2.226822645963271 0.6252438868405666 0  2.234390064317166 0.8676616584526566 0  5.2734375 0.125 0  1.96796875 0.382568359375 0  2.234651037971999 0.3674169956512511 0  1.984114583333333 0.132568359375 0  1.9921875 0.875 0  1.984114583333333 0.632568359375 0  5.748733794462357 0.8678269127183313 0  3.3984375 0.875456329184688 0  1.512925924995415 0.8582958012121853 0  1.359299372802969 0.6275861864990343 0  4.810521420483513 0.4041767793635395 0  0.2996213306116602 0.455339710363317 0  5.999933717403708 0.6388425470751088 0  5.250033449003657 0.6388713364551682 0  3.631676045992918 0.3525406652400928 0  4.3359375 0.8816499670325881 0  4.343577437052484 0.6116511299909198 0  3.375033449003656 0.3611286635448316 0  5.763152151652243 0.6249404690537395 0  4.549347848347757 0.6249404690537396 0  5.5004588702411 0.6403667365776566 0  5.976118394847484 0.8816230218343086 0  5.054722486865804 0.6338007028640954 0  3.164542163493752 0.3520519332736524 0  2.445407482032355 0.3672168403687257 0  4.8046875 0.882568359375 0  4.1015625 0.117431640625 0  2.4609375 0.117431640625 0  2.695556894938151 0.3520510350344335 0  2.929443105061849 0.3520510350344335 0  3.881979231817319 0.3670559016511187 0  3.8671875 0.117431640625 0  4.805389247695744 0.6470047893641744 0  3.399370721942191 0.1184066543556767 0  5.274370721942192 0.881593345644323 0  3.618253274934649 0.1316869186284249 0  2.6953125 0.1171877537844335 0  2.9296875 0.1171877537844335 0  2.21873344389451 0.125 0  4.3359375 0.1171877625080073 0  0.6659898565672709 0.3986593551313873 0  7.363359022954956 0.3481046411219251 0  7.363359022954956 0.6518953588780749 0  5.487719392831826 0.3828237631077121 0  2.695054578344725 0.5809158475691247 0  2.944553877887707 0.5964065668438148 0  0.3515625 0.1201898858097106 0  5.5078125 1 0  4.5703125 1 0  5.031746201297604 0.882568359375 0  3.1640625 0 0  6.2109375 1 0  6.186845385763124 0.6336356480571081 0  4.1015625 1 0  6.810399074069772 0.6495574751396682 0  0.4740615253480797 0.2509287743856873 0  7.052064303830151 0.3684417917792242 0  6.195177069665382 0.1216488332168849 0  5.72300154718324 0.4112068202852788 0  3.879157465495092 0.6111892850691246 0  3.645760045247695 0.5809158475691247 0  6.868257400485771 0.3427840810237202 0  6.612030892260864 0.1521752713064389 0  6.615666885941117 0.3151079644097221 0  4.04296875 0.8633718902669071 0  1.183031453639096 0.8486801864185936 0  6.9140625 0 0  6.859079526500421 0.1398292786950638 0  6.808232443325651 0.7957411753922057 0  6.9140625 1 0  4.544955211100143 0.3675874343205077 0  1.0546875 1 0  6.122060236165557 0.3316791557072867 0  0.5859375 0 0  5.9765625 0 0  5.44921875 0.870984788733638 0  4.51171875 0.870984788733638 0  0.7608354256382215 0.2931261274224557 0  6.386875332239937 0.3156583003094978 0  6.985654756850997 0.6147408423643147 0  6.223797257919172 0.8535621912121121 0  5.936822413218736 0.1338376546337823 0  6.23933008800134 0.4095573603773768 0  0.5414022462152697 0.1305482677949959 0  6.331360438104348 0.1370086318183389 0  0.956404929269873 0.1374266563647954 0  1.2890625 1 0  0.691305981127761 0.6764829884281737 0  3.531251607241209 0.8678916320952239 0  2.59787442813022 
[...]
<PointData  Vectors="f_71627"> 
<DataArray  type="Float64"  Name="f_71627"  NumberOfComponents="3" format="ascii">0.0000000000000000e+00 0.0000000000000000e+00 0.0000000000000000e+00  0.0000000000000000e+00 0.0000000000000000e+00 0.0000000000000000e+00  0.0000000000000000e+00 0.0000000000000000e+00 0.0000000000000000e+00  0.0000000000000000e+00 0.0000000000000000e+00 0.0000000000000000e+00  0.0000000000000000e+00 0.0000000000000000e+00 0.0000000000000000e+00  0.0000000000000000e+00 0.0000000000000000e+00 0.0000000000000000e+00  0.0000000000000000e+00 0.0000000000000000e+00 0.0000000000000000e+00  0.0000000000000000e+00 0.0000000000000000e+00 0.0000000000000000e+00  0.0000000000000000e+00 0.0000000000000000e+00 0.0000000000000000e+00  0.0000000000000000e+00 0.0000000000000000e+00 0.0000000000000000e+00  0.0000000000000000e+00 0.0000000000000000e+00 0.0000000000000000e+00  0.0000000000000000e+00 0.0000000000000000e+00 0.0000000000000000e+00  0.0000000000000000e+00 0.0000000000000000e+00 0.0000000000000000e+00  0.0000000000000000e+00 0.0000000000000000e+00 0.0000000000000000e+00  0.0000000000000000e+00 0.0000000000000000e+00 0.0000000000000000e+00  0.0000000000000000e+00 0.0000000000000000e+00 0.0000000000000000e+00  0.0000000000000000e+00 0.0000000000000000e+00 0.0000000000000000e+00  0.0000000000000000e+00 0.0000000000000000e+00 0.0000000000000000e+00  0.0000000000000000e+00 0.0000000000000000e+00 0.0000000000000000e+00  0.0000000000000000e+00 0.0000000000000000e+00 0.0000000000000000e+00  0.0000000000000000e+00 0.0000000000000000e+00 0.0000000000000000e+00  0.0000000000000000e+00 0.0000000000000000e+00 0.0000000000000000e+00  0.0000000000000000e+00 0.0000000000000000e+00 0.0000000000000000e+00  0.0000000000000000e+00 0.0000000000000000e+00 0.0000000000000000e+00  0.0000000000000000e+00 0.0000000000000000e+00 0.0000000000000000e+00  0.0000000000000000e+00 0.0000000000000000e+00 0.0000000000000000e+00  0.0000000000000000e+00 0.0000000000000000e+00 0.0000000000000000e+00  0.0000000000000000e+00 0.0000000000000000e+00 0.0000000000000000e+00  0.0000000000000000e+00 0.0000000000000000e+00 0.0000000000000000e+00  0.0000000000000000e+00 0.0000000000000000e+00 0.0000000000000000e+00  0.0000000000000000e+00 0.0000000000000000e+00 0.0000000000000000e+00  0.0000000000000000e+00 0.0000000000000000e+00 0.0000000000000000e+00  0.0000000000000000e+00 0.0000000000000000e+00 0.0000000000000000e+00  0.0000000000000000e+00 0.0000000000000000e+00 0.0000000000000000e+00  0.0000000000000000e+00 0.0000000000000000e+00 0.0000000000000000e+00  0.0000000000000000e+00 0.0000000000000000e+00 0.0000000000000000e+00  0.0000000000000000e+00 0.0000000000000000e+00 0.0000000000000000e+00  0.0000000000000000e+00 0.0000000000000000e+00 0.0000000000000000e+00  0.0000000000000000e+00 0.0000000000000000e+00 0.0000000000000000e+00  0.0000000000000000e+00 0.0000000000000000e+00 0.0000000000000000e+00  0.0000000000000000e+00 0.0000000000000000e+00 0.0000000000000000e+00  0.0000000000000000e+00 0.0000000000000000e+00 0.0000000000000000e+00  0.0000000000000000e+00 0.0000000000000000e+00 0.0000000000000000e+00  0.0000000000000000e+00 0.0000000000000000e+00 0.0000000000000000e+00  0.0000000000000000e+00 0.0000000000000000e+00 0.0000000000000000e+00  0.0000000000000000e+00 0.0000000000000000e+00 0.0000000000000000e+00  0.0000000000000000e+00 0.0000000000000000e+00 0.0000000000000000e+00  0.0000000000000000e+00 0.0000000000000000e+00 0.0000000000000000e+00  0.0000000000000000e+00 0.0000000000000000e+00 0.0000000000000000e+00  0.0000000000000000e+00 0.0000000000000000e+00 0.0000000000000000e+00  0.0000000000000000e+00 0.0000000000000000e+00 0.0000000000000000e+00  0.0000000000000000e+00 0.0000000000000000e+00 0.0000000000000000e+00  0.0000000000000000e+00 0.0000000000000000e+00 0.0000000000000000e+00  0.0000000000000000e+00 0.0000000000000000e+00 0.0000000000000000e+00  0.0000000000000000e+00 0.0000000000000000e+00 0.0000000000000000e+00  0.0000000000000000e+00 0.0000000000000000e+00 0.0000000000000000e+00  0.0000000000000000e+00 0.0000000000000000e+00 0.0000000000000000e+00  0.0000000000000000e+00 0.0000000000000000e+00 0.0000000000000000e+00  0.0000000000000000e+00 0.0000000000000000e+00 0.0000000000000000e+00  1.1151239156184940e+00 6.6842162588278114e-04 0.0000000000000000e+00  1.1195135728496122e+00 -5.7438047499930650e-03 0.0000000000000000e+00  2.0157951435868986e+00 -1.4305629414642121e-01 0.0000000000000000e+00  1.0318540221761883e+00 -2.3894126854312775e-01 0.0000000000000000e+00  1.1142409012561805e+00 -1.0129024330453099e-03 0.0000000000000000e+00  1.5000002025247994e+00 0.0000000000000000e+00 0.0000000000000000e+00  1.1932086436088833e+00 -2.6421641437975505e-03 0.0000000000000000e+00  4.0126624944658962e-01 8.9908739331091148e-01 0.0000000000000000e+00  1.5000002025247994e+00 0.0000000000000000e+00 0.0000000000000000e+00  0.0000000000000000e+00 0.0000000000000000e+00 0.0000000000000000e+00  1.1217953007255639e+00 4.8366074662474203e-04 0.0000000000000000e+00  0.0000000000000000e+00 0.0000000000000000e+00 0.0000000000000000e+00  0.0000000000000000e+00 0.0000000000000000e+00 0.0000000000000000e+00  2.1874229734715041e+00 9.0242898090820667e-01 0.0000000000000000e+00  0.0000000000000000e+00 0.0000000000000000e+00 0.0000000000000000e+00  0.0000000000000000e+00 0.0000000000000000e+00 0.0000000000000000e+00  0.0000000000000000e+00 0.0000000000000000e+00 0.0000000000000000e+00  1.1101532091444042e+00 -4.1484175379921814e-02 0.0000000000000000e+00  0.0000000000000000e+00 0.0000000000000000e+00 0.0000000000000000e+00  0.0000000000000000e+00 0.0000000000000000e+00 0.0000000000000000e+00  1.1188273937921660e+00 -3.6415865733103661e-04 0.0000000000000000e+00  0.0000000000000000e+00 0.0000000000000000e+00 0.0000000000000000e+00  0.0000000000000000e+00 0.0000000000000000e+00 0.0000000000000000e+00  0.0000000000000000e+00 0.0000000000000000e+00 0.0000000000000000e+00  0.0000000000000000e+00 0.0000000000000000e+00 0.0000000000000000e+00  0.0000000000000000e+00 0.0000000000000000e+00 0.0000000000000000e+00  0.0000000000000000e+00 0.0000000000000000e+00 0.0000000000000000e+00  0.0000000000000000e+00 0.0000000000000000e+00 0.0000000000000000e+00  1.3596610450291169e+00 -6.5688662839833559e-02 0.0000000000000000e+00  1.1410757423168281e+00 -5.8053857215096443e-03 0.0000000000000000e+00  1.1209513673988409e+00 -2.3764457072873017e-03 0.0000000000000000e+00  1.1039222679359084e+00 3.3062794471032419e-04 0.0000000000000000e+00  1.1005142164231256e+00 6.9170500421738529e-05 0.0000000000000000e+00  1.1943752674985073e+00 -6.4770413345095354e-02 0.0000000000000000e+00  1.1332084238908147e+00 -1.0834716881691738e-02 0.0000000000000000e+00  5.3662950359383066e-01 3.2477171679666150e-01 0.0000000000000000e+00  1.3149967580430757e+00 2.9013364725846302e-01 0.0000000000000000e+00  1.1207548979452151e+00 -1.6235128210826647e-03 0.0000000000000000e+00  8.2119146284192956e-01 -9.8490177138769769e-04 0.0000000000000000e+00  9.6215082106985605e-01 1.5645494342672081e-02 0.0000000000000000e+00  1.1075805126720317e+00 1.5751584309144817e-03 0.0000000000000000e+00  1.1250001518935997e+00 0.0000000000000000e+00 0.0000000000000000e+00  8.1024920298877989e-01 -5.9718912414234959e-01 0.0000000000000000e+00  5.7844135164323007e-01 -2.2947460947446366e-01 0.0000000000000000e+00  2.2510527507042597e+00 9.3898136690314071e-01 0.0000000000000000e+00  -3.4692169760177261e-01 9.9817668137746923e-02 0.0000000000000000e+00  1.1176898203400283e+00 1.5089527555982767e-03 0.0000000000000000e+00  1.1212874267541459e+00 2.3554575228899393e-03 0.0000000000000000e+00  1.1219278253295939e+00 -8.2114745172532787e-04 0.0000000000000000e+00  1.0990535954368539e+00 -1.0486664027204273e-02 0.0000000000000000e+00  1.0278717630822016e+00 -5.9035022070295366e-02 0.0000000000000000e+00  1.3765794562814717e+00 5.2767186825769552e-01 0.0000000000000000e+00  7.8725852835633703e-01 -2.3251353182216700e-01 0.0000000000000000e+00  1.1229403174177128e+00 -4.5362549147045389e-04 0.0000000000000000e+00  1.1011247883954933e+00 -5.7284199347478143e-04 0.0000000000000000e+00  1.1196168876914008e+00 -8.9098202954808470e-03 0.0000000000000000e+00  1.2414043642750758e+00 -1.1263261224033261e-01 0.0000000000000000e+00  0.0000000000000000e+00 0.0000000000000000e+00 0.0000000000000000e+00  1.2965246768984164e+00 -3.3823240652028852e-01 0.0000000000000000e+00  1.1250001518935997e+00 0.0000000000000000e+00 0.0000000000000000e+00  1.1296186739796297e+00 4.6867427116575411e-04 0.0000000000000000e+00  0.0000000000000000e+00 0.0000000000000000e+00 0.0000000000000000e+00  1.2600001774929515e+00 -3.3354503357526711e-03 0.0000000000000000e+00  9.9735832447046380e-01 1.7017664681247580e-01 0.0000000000000000e+00  2.0387908251703326e+00 -8.3968284137657700e-01 0.0000000000000000e+00  1.1134414108951296e+00 1.8342633062937602e-01 0.0000000000000000e+00  0.0000000000000000e+00 0.0000000000000000e+00 0.0000000000000000e+00  2.1914350921744101e+00 -1.2534656657874634e+00 0.0000000000000000e+00  1.1250001518935997e+00 0.0000000000000000e+00 0.0000000000000000e+00  1.4365821071167690e+00 -3.4170790847081994e-01 0.0000000000000000e+00  1.1250001518935997e+00 0.0000000000000000e+00 0.0000000000000000e+00  0.0000000000000000e+00 0.0000000000000000e+00 0.0000000000000000e+00  2.3248767442882010e+00 1.7338739097525610e-01 0.0000000000000000e+00  1.1091974393262347e+00 8.3464931811316637e-04 0.0000000000000000e+00  3.9937619183415973e-01 -2.0976735560380211e-01 0.0000000000000000e+00  0.0000000000000000e+00 0.0000000000000000e+00 0.0000000000000000e+00  1.1292696221430376e+00 -2.4544379842316214e-03 0.0000000000000000e+00  1.1627732494876917e+00 -7.0492255751403901e-02 0.0000000000000000e+00  1.8571346244415521e+00 4.1801217747426639e-01 0.0000000000000000e+00  1.1223492881902690e+00 1.3830838879830355e-04 0.0000000000000000e+00  1.1148651479768930e+00 5.0708578815830338e-04 0.0000000000000000e+00  1.1179108775097022e+00 1.7473705467334012e-03 0.0000000000000000e+00  1.1188511523012039e+00 1.4416836981817533e-03 0.0000000000000000e+00  1.1125240485212251e+00 -1.0731808397180506e-01 0.0000000000000000e+00  1.1152892509168661e+00 -1.6294049577212576e-03 0.0000000000000000e+00  1.1246776060615660e+00 -1.2906679266054958e-03 0.0000000000000000e+00  1.0769006306524733e+00 -2.4625045363608149e-02 0.0000000000000000e+00  1.1212280493968292e+00 -1.5420607409946985e-02 0.0000000000000000e+00  1.6655597636363790e+00 6.3188002813343636e-02 0.0000000000000000e+00  1.0999179053030277e+00 -3.8062395198322167e-03 0.0000000000000000e+00  0.0000000000000000e+00 0.0000000000000000e+00 0.0000000000000000e+00  6.0134441060062249e-01 -1.4009541092669953e-01 0.0000000000000000e+00  0.0000000000000000e+00 0.0000000000000000e+00 0.0000000000000000e+00  0.0000000000000000e+00 0.0000000000000000e+00 0.0000000000000000e+00  0.0000000000000000e+00 0.0000000000000000e+00 0.0000000000000000e+00  0.0000000000000000e+00 0.0000000000000000e+00 0.0000000000000000e+00  0.0000000000000000e+00 0.0000000000000000e+00 0.0000000000000000e+00  0.0000000000000000e+00 0.0000000000000000e+00 0.0000000000000000e+00  0.0000000000000000e+00 0.0000000000000000e+00 0.0000000000000000e+00  0.0000000000000000e+00 0.0000000000000000e+00 0.0000000000000000e+00  1.1082447784107512e+00 -5.5088603170441741e-04 0.0000000000000000e+00  0.0000000000000000e+00 0.0000000000000000e+00 0.0000000000000000e+00  0.0000000000000000e+00 0.0000000000000000e+00 0.0000000000000000e+00  0.0000000000000000e+00 0.0000000000000000e+00 0.0000000000000000e+00  0.0000000000000000e+00 0.0000000000000000e+00 0.0000000000000000e+00  0.0000000000000000e+00 0.0000000000000000e+00 0.0000000000000000e+00  0.0000000000000000e+00 0.0000000000000000e+00 0.0000000000000000e+00  0.0000000000000000e+00 0.0000000000000000e+00 0.0000000000000000e+00  0.0000000000000000e+00 0.0000000000000000e+00 0.0000000000000000e+00  0.0000000000000000e+00 0.0000000000000000e+00 0.0000000000000000e+00  0.0000000000000000e+00 0.0000000000000000e+00 0.0000000000000000e+00  0.0000000000000000e+00 0.0000000000000000e+00 0.0000000000000000e+00  0.0000000000000000e+00 0.0000000000000000e+00 0.0000000000000000e+00  0.0000000000000000e+00 0.0000000000000000e+00 0.0000000000000000e+00  0.0000000000000000e+00 0.0000000000000000e+00 0.0000000000000000e+00  0.0000000000000000e+00 0.0000000000000000e+00 0.0000000000000000e+00  0.0000000000000000e+00 0.0000000000000000e+00 0.0000000000000000e+00  0.0000000000000000e+00 0.0000000000000000e+00 0.0000000000000000e+00  0.0000000000000000e+00 0.0000000000000000e+00 0.0000000000000000e+00  1.1652611957686116e+00 -2.2672519123427080e-03 0.0000000000000000e+00  1.1187430463751074e+00 3.5169306961401574e-03 0.0000000000000000e+00  9.2975891198777771e-01 -9.4813757515561564e-02 0.0000000000000000e+00  1.1204301595400596e+00 -9.5428948624123031e-04 0.0000000000000000e+00  1.1075259709289178e+00 -5.8224075088732067e-04 0.0000000000000000e+00  9.4437031954052753e-01 1.1976378390282070e+00 0.0000000000000000e+00  1.1442924967196972e+00 -3.1207974855393821e-02 0.0000000000000000e+00  8.8748887106080199e-01 5.0263243629735722e-04 0.0000000000000000e+00  1.3695884135216616e+00 -2.1892636178169905e-01 0.0000000000000000e+00  1.3932349416005905e+00 -3.1505071023288499e-02 0.0000000000000000e+00  1.1154568234102480e+00 -1.8544070469999881e-03 0.0000000000000000e+00  1.1427579824888598e+00 -1.0002020134845689e-03 0.0000000000000000e+00  1.1738567442305579e+00 -7.8368630802075710e-03 0.0000000000000000e+00  1.4182397783903742e+00 -2.5351036283406099e-03 0.0000000000000000e+00  1.1288770546083768e+00 6.7473896357631577e-03 0.0000000000000000e+00  1.5321757580725586e+00 -3.5433370933567349e-01 0.0000000000000000e+00  1.4054085320162568e+00 -4.0953796736371811e-02 0.0000000000000000e+00  2.0932251698801441e+00 -1.0673565681689896e-01 0.0000000000000000e+00  1.3857366515368339e+00 4.9226367742822793e-04 0.0000000000000000e+00  1.3551157362943089e+00 2.3809481682163531e-03 0.0000000000000000e+00  1.1365128208947628e+00 -4.5800646114513864e-02 0.0000000000000000e+00  3.4741191583549026e-02 5.2650122676523103e-01 0.0000000000000000e+00  2.1066293388736765e+00 -4.7634404422944437e-01 0.0000000000000000e+00  3.8991693674295291e-01 -6.9505055849701847e-02 0.0000000000000000e+00  1.1212012283828863e+00 -2.7983968163035463e-03 0.0000000000000000e+00  1.7326682230790189e+00 3.5661369871824466e-01 0.0000000000000000e+00  1.3704984679394656e+00 9.2457064158944491e-01 0.0000000000000000e+00  8.4748385673007087e-01 -1.1943492380529714e-02 0.0000000000000000e+00  9.2165587811393268e-01 -3.7214440974433871e-03 0.0000000000000000e+00  1.0291391589646683e+00 -7.2345494483364383e-05 0.0000000000000000e+00  7.8945848996865919e-01 -9.2979766835069727e-03 0.0000000000000000e+00  1.1088918324637576e+00 -7.4856413031642649e-03 0.0000000000000000e+00  1.4210202597425454e+00 3.8366891542271259e-01 0.0000000000000000e+00  1.2141361897088428e-01 8.5169959584102539e-01 0.0000000000000000e+00  1.1199712464265543e+00 7.1448235287059616e-03 0.0000000000000000e+00  1.0548799856182238e+00 -3.1207973309546788e-03 0.0000000000000000e+00  1.0633713901121593e+00 3.8409061337380873e-01 0.0000000000000000e+00  1.1287737047983049e+00 -8.5794819254138635e-03 0.0000000000000000e+00  1.1134864717797113e+00 4.1297573015351523e-04 0.0000000000000000e+00  1.5419115486408557e+00 1.0983248486168556e-01 0.0000000000000000e+00  2.8890871205549340e-01 5.3997642277696689e-01 0.0000000000000000e+00  1.0426579740844906e+00 2.0759287532312604e-01 0.0000000000000000e+00  1.1198362799178139e+00 -8.0005572692065235e-03 0.0000000000000000e+00  1.1350285430295388e+00 -1.3586633559351203e-02 0.0000000000000000e+00  1.0784301065325788e+00 -4.6889996741653669e-03 0.0000000000000000e+00  1.0549150466061783e+00 1.0586164193023427e-03 0.0000000000000000e+00  1.4972695224235266e+00 -1.1316540385338818e-01 0.0000000000000000e+00  -1.7911479095750990e-01 -2.3736007420345887e-02 0.0000000000000000e+00  1.0789031350085476e+00 2.2032471823979771e-03 0.0000000000000000e+00  6.5625008860459988e-01 0.0000000000000000e+00 0.0000000000000000e+00  8.6851321310134721e-01 -4.0231961741807959e-02 0.0000000000000000e+00  1.0502130935338465e+00 3.2092840338180189e-05 0.0000000000000000e+00  5.1569711608555324e-01 2.8944507009176952e-02 0.0000000000000000e+00  1.0605269140603810e+00 1.1866428849700253e-03 0.0000000000000000e+00  1.0908984473050585e+00 9.3981748935930169e-04 0.0000000000000000e+00  1.1088665901662622e+00 -3.9623328806149601e-03 0.0000000000000000e+00  1.1023667561892776e+00 -1.3514937482657801e-03 0.0000000000000000e+00  1.2025232323882793e+00 -1.7810111283358376e-01 0.0000000000000000e+00  1.1147092563470782e+00 8.7333332297348824e-04 0.0000000000000000e+00  1.5001656738641769e+00 -6.1402449258890357e-01 0.0000000000000000e+00  1.2317855175977893e-01 -2.5397086973822994e-02 0.0000000000000000e+00  1.0642568714025211e+00 -6.6712556119764464e-05 0.0000000000000000e+00  5.2393389532499279e-01 5.0200587327127655e-01 0.0000000000000000e+00  1.5620233159116439e+00 -9.4008132780138154e-01 0.0000000000000000e+00  9.3488514399942668e-01 -7.2899032371718547e-02 0.0000000000000000e+00  3.8850013622543456e-01 -4.1168176617137875e-01 0.0000000000000000e+00  2.2017887706218060e+00 -1.2516218670801957e+00 0.0000000000000000e+00  1.0790876501892033e+00 -1.5270468926223007e-03 0.0000000000000000e+00  1.1756600331708040e+00 -3.8086374714986347e-02 0.0000000000000000e+00  2.0494398455253493e+00 -1.7897611328941399e-01 0.0000000000000000e+00  -1.1310868298137731e+00 -3.4508582641181146e-02 0.0000000000000000e+00  1.1127026830033790e+00 -1.2099697484545641e-04 0.0000000000000000e+00  1.4609059433304339e+00 -9.5325064791210376e-02 0.0000000000000000e+00  1.1162384549189630e+00 1.0642722184612931e-03 0.0000000000000000e+00  1.1197677302873414e+00 1.0646436790343996e-03 0.0000000000000000e+00  1.0769210004276704e+00 -5.4088250269103862e-02 0.0000000000000000e+00  1.0514487306636207e+00 2.4524049590014664e-03 0.0000000000000000e+00  1.1258127971667431e+00 -3.8583688308191765e-03 0.0000000000000000e+00  1.0128769441897065e+00 -1.2793454952819661e-01 0.0000000000000000e+00  1.1212548490211791e+00 -5.5649722250563109e-04 0.0000000000000000e+00  1.1196139285527298e+00 -5.9368050679935733e-04 0.0000000000000000e+00  1.1235726253676017e+00 -6.2124452908048089e-04 0.0000000000000000e+00  1.0643462974988203e+00 1.8046222957765132e-03 0.0000000000000000e+00  1.1226123396086627e+00 8.7722793078717212e-04 0.0000000000000000e+00  9.3512463216211317e-01 -1.7261270252956665e-01 0.0000000000000000e+00  1.7725391201156595e+00 1.3682972506153951e-01 0.0000000000000000e+00  1.0402202450971383e+00 1.9191346892169971e-03 0.0000000000000000e+00  1.0314224543119337e+00 -3.3609066877124914e-03 0.0000000000000000e+00  7.0736961413704336e-01 1.6959085260708201e-01 0.0000000000000000e+00  2.1090787178435302e+00 7.7801625137565678e-01 0.0000000000000000e+00  1.1052917127592190e+00 -2.8699164736492194e-01 0.0000000000000000e+00  1.1011980212425303e+00 -2.1415597369442298e-02 0.0000000000000000e+00  1.0252544929896632e+00 -4.9948304543001223e-03 0.0000000000000000e+00  1.1224450835682314e+00 -8.1839104141833761e-05 0.0000000000000000e+00  9.3933929315381104e-01 -2.5660024599181357e-02 0.0000000000000000e+00  1.0461490576747572e+00 2.4902286578157903e-03 0.0000000000000000e+00  1.0104516482003831e+00 -1.6880422169259703e-02 0.0000000000000000e+00  3.1564119266233459e-01 1.6218050543372348e-02 0.0000000000000000e+00  5.2521970719093014e-01 -1.2612610931144999e-01 0.0000000000000000e+00  1.2301744982518779e+00 -4.9582096374517978e-02 0.0000000000000000e+00  1.0343411285637487e+00 -2.2351049852051916e-03 0.0000000000000000e+00  1.2613005434276510e+00 -4.7743890638706787e-01 0.0000000000000000e+00  9.9673098947682415e-01 -8.6094536824987827e-03 0.0000000000000000e+00  1.0815214480191691e+00 1.0640536868127295e-02 0.0000000000000000e+00  1.1139518803015966e+00 4.343265086505