<?xml version="1.0"?>
<VTKFile type="UnstructuredGrid"  version="0.1"  >
<UnstructuredGrid>
<Piece  NumberOfPoints="4269" NumberOfCells="8234">
<Points>
<DataArray  type="Float64"  NumberOfComponents="3"  format="ascii">0 1 0  0 0 0  7.5 0 0  7.5 1 0  1.197537668119028 0.5812868930080463 0  1.2 0.55 0  1.197537668119028 0.5187131069919538 0  1.190211303259031 0.4881966011250105 0  1.178201304837674 0.4592019000520907 0  1.161803398874989 0.4324429495415054 0  1.141421356237309 0.4085786437626905 0  1.117557050458495 0.3881966011250105 0  1.090798099947909 0.3717986951623264 0  1.06180339887499 0.3597886967409693 0  1.031286893008046 0.3524623318809725 0  1 0.35 0  0.9687131069919538 0.3524623318809725 0  0.9381966011250105 0.3597886967409694 0  0.9092019000520906 0.3717986951623264 0  0.8824429495415054 0.3881966011250105 0  0.8585786437626904 0.4085786437626905 0  0.8381966011250105 0.4324429495415054 0  0.8217986951623264 0.4592019000520907 0  0.8097886967409692 0.4881966011250107 0  0.8024623318809725 0.5187131069919539 0  0.8 0.55 0  0.8024623318809725 0.5812868930080463 0  0.8097886967409693 0.6118033988749896 0  0.8217986951623264 0.6407980999479095 0  0.8381966011250105 0.6675570504584947 0  0.8585786437626906 0.6914213562373096 0  0.8824429495415054 0.7118033988749896 0  0.9092019000520907 0.7282013048376736 0  0.9381966011250106 0.7402113032590307 0  0.9687131069919539 0.7475376681190276 0  1 0.75 0  1.031286893008046 0.7475376681190276 0  1.06180339887499 0.7402113032590307 0  1.090798099947909 0.7282013048376736 0  1.117557050458495 0.7118033988749896 0  1.141421356237309 0.6914213562373095 0  1.161803398874989 0.6675570504584947 0  1.178201304837674 0.6407980999479094 0  1.190211303259031 0.6118033988749896 0  3.75 0 0  3.75 1 0  1.875 0 0  1.875 1 0  0.9375 0 0  0.9375 1 0  1.40625 1 0  5.625 1 0  5.625 0 0  2.8125 1 0  2.8125 0 0  4.6875 0 0  4.6875 1 0  6.5625 0 0  6.5625 1 0  5.15625 0.5 0  4.21875 0.5 0  2.34375 0.5 0  3.28125 0.5 0  6.09375 0.5 0  7.5 0.5 0  6.897916666666666 0.5 0  1.842708333333333 0.5 0  0 0.5 0  0.46875 0 0  5.625 0.5302734375 0  7.03125 0 0  6.09375 1 0  2.8125 0.4697265625 0  3.28125 0 0  2.34375 1 0  2.34375 0 0  3.75 0.4697265625 0  4.21875 0 0  4.21875 1 0  4.6875 0.5302734375 0  3.28125 1 0  5.15625 0 0  6.09375 0 0  5.15625 1 0  0.46875 1 0  1.40625 0 0  7.03125 1 0  0.3954638734376499 0.5975780249976004 0  6.495833333333334 0.4072265624999998 0  5.859375 0.25 0  4.905729166666666 0.26513671875 0  4.453125 0.25 0  3.531770833333333 0.73486328125 0  3.968229166666667 0.73486328125 0  2.594270833333333 0.73486328125 0  3.030729166666667 0.73486328125 0  6.328125 0.75 0  7.198958333333334 0.3125000000000002 0  7.198958333333334 0.6874999999999998 0  5.390625 0.25 0  0 0.25 0  2.109375 0.75 0  2.109375 0.25 0  1.51921323205749 0.3418883887525936 0  1.522346610178253 0.6811769608297746 0  5.375456746419271 0.75 0  4.921875 0.76513671875 0  4.437956746419271 0.75 0  3.984375 0.23486328125 0  3.500456746419271 0.25 0  2.578125 0.23486328125 0  3.046875 0.23486328125 0  5.874543253580729 0.75 0  6.642123189445656 0.6909095493086836 0  6.746354166666666 0.2391688368055553 0  0.3197109619185111 0.2850049285972083 0  6.328125 0 0  0.6313375889370429 0.2351325552547357 0  0 0.75 0  6.252283381534729 0.2693808819694041 0  0.234375 1 0  6.948437500000001 0.7543055555555555 0  0.5934018769555939 0.7694151657947577 0  1.858854166666667 0.75 0  1.858854166666667 0.25 0  1.640625 0 0  2.093229166666667 0.5 0  7.5 0.25 0  3.282227579752604 0.75 0  7.5 0.75 0  1.171875 0 0  1.303539853147731 0.2235426933121065 0  5.148177083333333 0.2575683593749998 0  2.351822916666667 0.742431640625 0  1.640625 1 0  4.202380413457425 0.7645435094236485 0  3.047822985053062 0.4701848030090332 0  2.577177014946938 0.4701848030090332 0  4.672792740482199 0.76513671875 0  4.922822985053062 0.5298151969909668 0  5.390593497949761 0.5156244924311331 0  5.610292740482199 0.76513671875 0  3.516602579752604 0.5 0  4.45496853898097 0.4865915990446593 0  5.85753146101903 0.4865915990446593 0  3.749511210123698 0.23486328125 0  3.983397420247396 0.4999999999999999 0  2.343497975411212 0.2346270081980111 0  4.219002024588788 0.2346270081980111 0  0.703125 0 0  2.8125 0.2343755075688669 0  3.046875 0 0  2.578125 0 0  3.515625 0 0  3.984375 0 0  4.453125 1 0  5.390625 1 0  2.109375 0 0  2.109375 1 0  5.625 0.2921402030705575 0  5.390625 0 0  7.265625 0 0  6.796875 0 0  6.328125 1 0  3.046875 1 0  2.578125 1 0  3.984375 1 0  3.515625 1 0  4.453125 0 0  4.921875 0 0  5.859375 0 0  0.703125 1 0  1.171875 1 0  7.265625 1 0  4.921875 1 0  5.859375 1 0  0.234375 0 0  6.796875 1 0  6.980310975276531 0.2285890127127066 0  5.149170481934885 0.772689292163473 0  3.274170481934884 0.2273107078365268 0  6.101334126790364 0.7722468376159667 0  4.678005340872584 0.3000799877067239 0  2.8125 0.6921051326382495 0  3.75 0.6921051326382495 0  0.3515624999999999 0.8134571721668546 0  0.4990405774417521 0.4070099317153735 0  0.1789273931360182 0.625 0  6.31239060814315 0.5298877111157968 0  6.456979773992304 0.1917956348713352 0  6.699870808919271 0.4406293402777773 0  1.337539480965883 0.7944303676599538 0  6.058675797563041 0.2019812164653516 0  0.8203125 0.1643029084422534 0  0.1480856513011711 0.375 0  1.090769294689562 0.1719186776982972 0  7.291088163206459 0.5 0  7.094502414936563 0.5197902199074071 0  0.6046212059042245 0.5730066483871106 0  1.707231580809486 0.6342709161352207 0  1.685961352504593 0.8193269193390785 0  1.374721602852827 0.4600373025865813 0  6.486415510043844 0.5916440776477192 0  1.5234375 0.1508863828685116 0  1.707925830421689 0.3657739208189008 0  0.1674513225045584 0.8278776664019765 0  7.138268756771176 0.1438183366439137 0  7.1484375 0.8616388888888887 0  7.328562530764119 0.819498462930605 0  4.101073710123698 0.3678637200736647 0  1.693878467219965 0.1911955120941053 0  1.577566745468488 0.5110082404081502 0  6.6796875 0.8653871806883484 0  6.498039504430512 0.825568433346395 0  0.7562556668576472 0.8333197949571929 0  4.101045914668806 0.6255195807449272 0  5.030745188395182 0.382829047309028 0  2.476364945868651 0.6095868094762166 0  2.729359843907322 0.8460525663191247 0  2.9296875 0.8740763101564099 0  3.163518307559356 0.6254622797994247 0  3.666859843907322 0.8460525663191247 0  3.8671875 0.8740763101564099 0  4.8046875 0.12592368984359 0  3.14936031382311 0.8606990583876851 0  2.4609375 0.8747622921397776 0  5.023140791101972 0.1392266772452574 0  0 0.125 0  0.1759922923594607 0.1727589856739889 0  4.5703125 0.125 0  7.327755777818006 0.1766156770456191 0  5.5078125 0.125 0  5.719712725029036 0.1460701015352787 0  4.327848962028002 0.3674169956512513 0  5.982681121544351 0.3692637923021713 0  3.398926289876302 0.6245417594909667 0  5.281756792511996 0.3827993367299961 0  2.226822645963271 0.6252438868405666 0  2.234390064317166 0.8676616584526566 0  5.2734375 0.125 0  1.96796875 0.382568359375 0  2.234651037971999 0.3674169956512511 0  1.984114583333333 0.132568359375 0  1.9921875 0.875 0  1.984114583333333 0.632568359375 0  5.748733794462357 0.8678269127183313 0  3.3984375 0.875456329184688 0  1.512925924995415 0.8582958012121853 0  1.359299372802969 0.6275861864990343 0  4.810521420483513 0.4041767793635395 0  0.2996213306116602 0.455339710363317 0  5.999933717403708 0.6388425470751088 0  5.250033449003657 0.6388713364551682 0  3.631676045992918 0.3525406652400928 0  4.3359375 0.8816499670325881 0  4.343577437052484 0.6116511299909198 0  3.375033449003656 0.3611286635448316 0  5.763152151652243 0.6249404690537395 0  4.549347848347757 0.6249404690537396 0  5.5004588702411 0.6403667365776566 0  5.976118394847484 0.8816230218343086 0  5.054722486865804 0.6338007028640954 0  3.164542163493752 0.3520519332736524 0  2.445407482032355 0.3672168403687257 0  4.8046875 0.882568359375 0  4.1015625 0.117431640625 0  2.4609375 0.117431640625 0  2.695556894938151 0.3520510350344335 0  2.929443105061849 0.3520510350344335 0  3.881979231817319 0.3670559016511187 0  3.8671875 0.117431640625 0  4.805389247695744 0.6470047893641744 0  3.399370721942191 0.1184066543556767 0  5.274370721942192 0.881593345644323 0  3.618253274934649 0.1316869186284249 0  2.6953125 0.1171877537844335 0  2.9296875 0.1171877537844335 0  2.21873344389451 0.125 0  4.3359375 0.1171877625080073 0  0.6659898565672709 0.3986593551313873 0  7.363359022954956 0.3481046411219251 0  7.363359022954956 0.6518953588780749 0  5.487719392831826 0.3828237631077121 0  2.695054578344725 0.5809158475691247 0  2.944553877887707 0.5964065668438148 0  0.3515625 0.1201898858097106 0  5.5078125 1 0  4.5703125 1 0  5.031746201297604 0.882568359375 0  3.1640625 0 0  6.2109375 1 0  6.186845385763124 0.6336356480571081 0  4.1015625 1 0  6.810399074069772 0.6495574751396682 0  0.4740615253480797 0.2509287743856873 0  7.052064303830151 0.3684417917792242 0  6.195177069665382 0.1216488332168849 0  5.72300154718324 0.4112068202852788 0  3.879157465495092 0.6111892850691246 0  3.645760045247695 0.5809158475691247 0  6.868257400485771 0.3427840810237202 0  6.612030892260864 0.1521752713064389 0  6.615666885941117 0.3151079644097221 0  4.04296875 0.8633718902669071 0  1.183031453639096 0.8486801864185936 0  6.9140625 0 0  6.859079526500421 0.1398292786950638 0  6.808232443325651 0.7957411753922057 0  6.9140625 1 0  4.544955211100143 0.3675874343205077 0  1.0546875 1 0  6.122060236165557 0.3316791557072867 0  0.5859375 0 0  5.9765625 0 0  5.44921875 0.870984788733638 0  4.51171875 0.870984788733638 0  0.7608354256382215 0.2931261274224557 0  6.386875332239937 0.3156583003094978 0  6.985654756850997 0.6147408423643147 0  6.223797257919172 0.8535621912121121 0  5.936822413218736 0.1338376546337823 0  6.23933008800134 0.4095573603773768 0  0.5414022462152697 0.1305482677949959 0  6.331360438104348 0.1370086318183389 0  0.956404929269873 0.1374266563647954 0  1.2890625 1 0  0.691305981127761 0.6764829884281737 0  3.531251607241209 0.8678916320952239 0  2.59787442813022 
[...]
<PointData  Vectors="f_71627"> 
<DataArray  type="Float64"  Name="f_71627"  NumberOfComponents="3" format="ascii">0.0000000000000000e+00 0.0000000000000000e+00 0.0000000000000000e+00  0.0000000000000000e+00 0.0000000000000000e+00 0.0000000000000000e+00  0.0000000000000000e+00 0.0000000000000000e+00 0.0000000000000000e+00  0.0000000000000000e+00 0.0000000000000000e+00 0.0000000000000000e+00  0.0000000000000000e+00 0.0000000000000000e+00 0.0000000000000000e+00  0.0000000000000000e+00 0.0000000000000000e+00 0.0000000000000000e+00  0.0000000000000000e+00 0.0000000000000000e+00 0.0000000000000000e+00  0.0000000000000000e+00 0.0000000000000000e+00 0.0000000000000000e+00  0.0000000000000000e+00 0.0000000000000000e+00 0.0000000000000000e+00  0.0000000000000000e+00 0.0000000000000000e+00 0.0000000000000000e+00  0.0000000000000000e+00 0.0000000000000000e+00 0.0000000000000000e+00  0.0000000000000000e+00 0.0000000000000000e+00 0.0000000000000000e+00  0.0000000000000000e+00 0.0000000000000000e+00 0.0000000000000000e+00  0.0000000000000000e+00 0.0000000000000000e+00 0.0000000000000000e+00  0.0000000000000000e+00 0.0000000000000000e+00 0.0000000000000000e+00  0.0000000000000000e+00 0.0000000000000000e+00 0.0000000000000000e+00  0.0000000000000000e+00 0.0000000000000000e+00 0.0000000000000000e+00  0.0000000000000000e+00 0.0000000000000000e+00 0.0000000000000000e+00  0.0000000000000000e+00 0.0000000000000000e+00 0.0000000000000000e+00  0.0000000000000000e+00 0.0000000000000000e+00 0.0000000000000000e+00  0.0000000000000000e+00 0.0000000000000000e+00 0.0000000000000000e+00  0.0000000000000000e+00 0.0000000000000000e+00 0.0000000000000000e+00  0.0000000000000000e+00 0.0000000000000000e+00 0.0000000000000000e+00  0.0000000000000000e+00 0.0000000000000000e+00 0.0000000000000000e+00  0.0000000000000000e+00 0.0000000000000000e+00 0.0000000000000000e+00  0.0000000000000000e+00 0.0000000000000000e+00 0.0000000000000000e+00  0.0000000000000000e+00 0.0000000000000000e+00 0.0000000000000000e+00  0.0000000000000000e+00 0.0000000000000000e+00 0.0000000000000000e+00  0.0000000000000000e+00 0.0000000000000000e+00 0.0000000000000000e+00  0.0000000000000000e+00 0.0000000000000000e+00 0.0000000000000000e+00  0.0000000000000000e+00 0.0000000000000000e+00 0.0000000000000000e+00  0.0000000000000000e+00 0.0000000000000000e+00 0.0000000000000000e+00  0.0000000000000000e+00 0.0000000000000000e+00 0.0000000000000000e+00  0.0000000000000000e+00 0.0000000000000000e+00 0.0000000000000000e+00  0.0000000000000000e+00 0.0000000000000000e+00 0.0000000000000000e+00  0.0000000000000000e+00 0.0000000000000000e+00 0.0000000000000000e+00  0.0000000000000000e+00 0.0000000000000000e+00 0.0000000000000000e+00  0.0000000000000000e+00 0.0000000000000000e+00 0.0000000000000000e+00  0.0000000000000000e+00 0.0000000000000000e+00 0.0000000000000000e+00  0.0000000000000000e+00 0.0000000000000000e+00 0.0000000000000000e+00  0.0000000000000000e+00 0.0000000000000000e+00 0.0000000000000000e+00  0.0000000000000000e+00 0.0000000000000000e+00 0.0000000000000000e+00  0.0000000000000000e+00 0.0000000000000000e+00 0.0000000000000000e+00  0.0000000000000000e+00 0.0000000000000000e+00 0.0000000000000000e+00  0.0000000000000000e+00 0.0000000000000000e+00 0.0000000000000000e+00  0.0000000000000000e+00 0.0000000000000000e+00 0.0000000000000000e+00  0.0000000000000000e+00 0.0000000000000000e+00 0.0000000000000000e+00  0.0000000000000000e+00 0.0000000000000000e+00 0.0000000000000000e+00  0.0000000000000000e+00 0.0000000000000000e+00 0.0000000000000000e+00  0.0000000000000000e+00 0.0000000000000000e+00 0.0000000000000000e+00  0.0000000000000000e+00 0.0000000000000000e+00 0.0000000000000000e+00  0.0000000000000000e+00 0.0000000000000000e+00 0.0000000000000000e+00  0.0000000000000000e+00 0.0000000000000000e+00 0.0000000000000000e+00  0.0000000000000000e+00 0.0000000000000000e+00 0.0000000000000000e+00  0.0000000000000000e+00 0.0000000000000000e+00 0.0000000000000000e+00  0.0000000000000000e+00 0.0000000000000000e+00 0.0000000000000000e+00  0.0000000000000000e+00 0.0000000000000000e+00 0.0000000000000000e+00  0.0000000000000000e+00 0.0000000000000000e+00 0.0000000000000000e+00  0.0000000000000000e+00 0.0000000000000000e+00 0.0000000000000000e+00  1.0386365913179574e+00 -1.6286594734276089e-02 0.0000000000000000e+00  1.0297353800028719e+00 1.9874363159313019e-03 0.0000000000000000e+00  1.0472374905516397e+00 5.1037007030003446e-03 0.0000000000000000e+00  1.0250029838942412e+00 -1.9485519422747814e-03 0.0000000000000000e+00  1.0263072555396104e+00 4.5215005509138860e-03 0.0000000000000000e+00  1.5000002147371592e+00 0.0000000000000000e+00 0.0000000000000000e+00  1.1408597029531284e+00 -1.1893728582678122e-02 0.0000000000000000e+00  1.0273630389656245e+00 2.3728428411034490e-02 0.0000000000000000e+00  1.5000002147371592e+00 0.0000000000000000e+00 0.0000000000000000e+00  0.0000000000000000e+00 0.0000000000000000e+00 0.0000000000000000e+00  1.0438144802750049e+00 4.1581682895004829e-03 0.0000000000000000e+00  0.0000000000000000e+00 0.0000000000000000e+00 0.0000000000000000e+00  0.0000000000000000e+00 0.0000000000000000e+00 0.0000000000000000e+00  1.0508886718337798e+00 1.7649559675790807e-04 0.0000000000000000e+00  0.0000000000000000e+00 0.0000000000000000e+00 0.0000000000000000e+00  0.0000000000000000e+00 0.0000000000000000e+00 0.0000000000000000e+00  0.0000000000000000e+00 0.0000000000000000e+00 0.0000000000000000e+00  1.0395303626793031e+00 -2.2936973787652370e-03 0.0000000000000000e+00  0.0000000000000000e+00 0.0000000000000000e+00 0.0000000000000000e+00  0.0000000000000000e+00 0.0000000000000000e+00 0.0000000000000000e+00  1.0281571334084032e+00 -3.1269424016878099e-03 0.0000000000000000e+00  0.0000000000000000e+00 0.0000000000000000e+00 0.0000000000000000e+00  0.0000000000000000e+00 0.0000000000000000e+00 0.0000000000000000e+00  0.0000000000000000e+00 0.0000000000000000e+00 0.0000000000000000e+00  0.0000000000000000e+00 0.0000000000000000e+00 0.0000000000000000e+00  0.0000000000000000e+00 0.0000000000000000e+00 0.0000000000000000e+00  0.0000000000000000e+00 0.0000000000000000e+00 0.0000000000000000e+00  0.0000000000000000e+00 0.0000000000000000e+00 0.0000000000000000e+00  1.3334239117685527e+00 1.0940033456100749e-02 0.0000000000000000e+00  1.0729565908393934e+00 -1.0048769204367019e-02 0.0000000000000000e+00  1.0433307959882436e+00 1.8449756453094938e-02 0.0000000000000000e+00  1.0085632191920750e+00 -2.3399815084638564e-02 0.0000000000000000e+00  1.0139186819941224e+00 -2.2490936793957358e-02 0.0000000000000000e+00  1.0399782775009183e+00 -8.5975734347242330e-03 0.0000000000000000e+00  1.0691617695482110e+00 2.9219028221395145e-03 0.0000000000000000e+00  1.0480354858687151e+00 -1.9737549769221227e-04 0.0000000000000000e+00  1.0499439488635025e+00 1.2098688193506882e-03 0.0000000000000000e+00  1.0255653282920494e+00 2.2695358211781716e-02 0.0000000000000000e+00  6.9594530603771343e-01 -3.6593360811843376e-02 0.0000000000000000e+00  9.1415292536597303e-01 2.2333917866972507e-03 0.0000000000000000e+00  1.0402308736565073e+00 1.1448104632026298e-02 0.0000000000000000e+00  1.1250001610528695e+00 0.0000000000000000e+00 0.0000000000000000e+00  1.0411432395221549e+00 4.5808095950057703e-03 0.0000000000000000e+00  1.0521647231151290e+00 8.6408208013634205e-03 0.0000000000000000e+00  1.0560461697994863e+00 2.4477785104748526e-01 0.0000000000000000e+00  9.3421866815942267e-01 -1.7976303498813043e-01 0.0000000000000000e+00  1.0575724020494273e+00 -2.0021233923959995e-02 0.0000000000000000e+00  1.0839237586043355e+00 -2.0014471701329868e-02 0.0000000000000000e+00  1.0629943413026137e+00 4.1412762957923691e-03 0.0000000000000000e+00  1.0195067325173761e+00 -3.0938356868230574e-02 0.0000000000000000e+00  1.0225757377137479e+00 -5.5571402371421413e-03 0.0000000000000000e+00  1.0535898647099553e+00 3.9174722494294927e-03 0.0000000000000000e+00  1.0489619418237155e+00 -2.1895949231831835e-03 0.0000000000000000e+00  1.0350722931114429e+00 1.8217946179675853e-02 0.0000000000000000e+00  1.0151449200393128e+00 -4.5570941520810008e-03 0.0000000000000000e+00  1.1208351064253286e+00 -4.3896424161146697e-03 0.0000000000000000e+00  1.1978186254889580e+00 -1.4561954629990964e-01 0.0000000000000000e+00  0.0000000000000000e+00 0.0000000000000000e+00 0.0000000000000000e+00  1.1116222655217600e+00 -3.4451717424224104e-01 0.0000000000000000e+00  1.1250001610528695e+00 0.0000000000000000e+00 0.0000000000000000e+00  1.0551377209576605e+00 8.1384287115366782e-03 0.0000000000000000e+00  0.0000000000000000e+00 0.0000000000000000e+00 0.0000000000000000e+00  1.2728928787565572e+00 6.0127183263459592e-03 0.0000000000000000e+00  9.6060998510011963e-01 2.9244174442906296e-01 0.0000000000000000e+00  1.0371286926162491e+00 -4.3919588471074871e-03 0.0000000000000000e+00  1.0687120275648949e+00 3.0291857675341684e-02 0.0000000000000000e+00  0.0000000000000000e+00 0.0000000000000000e+00 0.0000000000000000e+00  1.0439855475614448e+00 1.0148035560000044e-02 0.0000000000000000e+00  1.1250001610528695e+00 0.0000000000000000e+00 0.0000000000000000e+00  1.0216533616643062e+00 -2.3875619567131044e-03 0.0000000000000000e+00  1.1250001610528695e+00 0.0000000000000000e+00 0.0000000000000000e+00  0.0000000000000000e+00 0.0000000000000000e+00 0.0000000000000000e+00  1.5375692753787953e+00 3.2612249466206200e-01 0.0000000000000000e+00  1.0685773840102974e+00 6.9267069552035616e-03 0.0000000000000000e+00  1.0447248638225330e+00 1.7345493552873782e-03 0.0000000000000000e+00  0.0000000000000000e+00 0.0000000000000000e+00 0.0000000000000000e+00  1.0538384498356572e+00 -7.1237048044634323e-03 0.0000000000000000e+00  1.0493965528148175e+00 -6.9039113248489171e-04 0.0000000000000000e+00  1.0498143258954491e+00 2.6072949206577723e-03 0.0000000000000000e+00  1.0900026700523044e+00 1.9241500092448823e-03 0.0000000000000000e+00  1.0422198697949328e+00 -1.2970914984930993e-02 0.0000000000000000e+00  1.0465585334985490e+00 -1.3383277148791353e-02 0.0000000000000000e+00  1.0273558076981371e+00 -5.0054242642325738e-03 0.0000000000000000e+00  1.0645746045168565e+00 8.3866391467874281e-04 0.0000000000000000e+00  1.0407392617565101e+00 -3.0295150680026742e-03 0.0000000000000000e+00  1.0529982752570970e+00 -8.3696645409787832e-03 0.0000000000000000e+00  1.0519234870969749e+00 -5.4679319912913802e-03 0.0000000000000000e+00  1.0288400620224321e+00 1.7568253236084772e-02 0.0000000000000000e+00  1.0489407976552658e+00 6.9092919955466778e-03 0.0000000000000000e+00  1.0291300413458602e+00 -6.7106380432774377e-03 0.0000000000000000e+00  0.0000000000000000e+00 0.0000000000000000e+00 0.0000000000000000e+00  1.0523566698856475e+00 -2.4031906694574924e-03 0.0000000000000000e+00  0.0000000000000000e+00 0.0000000000000000e+00 0.0000000000000000e+00  0.0000000000000000e+00 0.0000000000000000e+00 0.0000000000000000e+00  0.0000000000000000e+00 0.0000000000000000e+00 0.0000000000000000e+00  0.0000000000000000e+00 0.0000000000000000e+00 0.0000000000000000e+00  0.0000000000000000e+00 0.0000000000000000e+00 0.0000000000000000e+00  0.0000000000000000e+00 0.0000000000000000e+00 0.0000000000000000e+00  0.0000000000000000e+00 0.0000000000000000e+00 0.0000000000000000e+00  0.0000000000000000e+00 0.0000000000000000e+00 0.0000000000000000e+00  9.7071316680523789e-01 -6.7606254453063865e-03 0.0000000000000000e+00  0.0000000000000000e+00 0.0000000000000000e+00 0.0000000000000000e+00  0.0000000000000000e+00 0.0000000000000000e+00 0.0000000000000000e+00  0.0000000000000000e+00 0.0000000000000000e+00 0.0000000000000000e+00  0.0000000000000000e+00 0.0000000000000000e+00 0.0000000000000000e+00  0.0000000000000000e+00 0.0000000000000000e+00 0.0000000000000000e+00  0.0000000000000000e+00 0.0000000000000000e+00 0.0000000000000000e+00  0.0000000000000000e+00 0.0000000000000000e+00 0.0000000000000000e+00  0.0000000000000000e+00 0.0000000000000000e+00 0.0000000000000000e+00  0.0000000000000000e+00 0.0000000000000000e+00 0.0000000000000000e+00  0.0000000000000000e+00 0.0000000000000000e+00 0.0000000000000000e+00  0.0000000000000000e+00 0.0000000000000000e+00 0.0000000000000000e+00  0.0000000000000000e+00 0.0000000000000000e+00 0.0000000000000000e+00  0.0000000000000000e+00 0.0000000000000000e+00 0.0000000000000000e+00  0.0000000000000000e+00 0.0000000000000000e+00 0.0000000000000000e+00  0.0000000000000000e+00 0.0000000000000000e+00 0.0000000000000000e+00  0.0000000000000000e+00 0.0000000000000000e+00 0.0000000000000000e+00  0.0000000000000000e+00 0.0000000000000000e+00 0.0000000000000000e+00  0.0000000000000000e+00 0.0000000000000000e+00 0.0000000000000000e+00  1.1233787997653701e+00 -6.5441777590431918e-02 0.0000000000000000e+00  1.0719155566791396e+00 1.0594458643863021e-03 0.0000000000000000e+00  1.0298014987970521e+00 1.1483334177249843e-02 0.0000000000000000e+00  1.0401128500096344e+00 1.7301002596646069e-02 0.0000000000000000e+00  1.0058175353710865e+00 -3.3071738393617325e-03 0.0000000000000000e+00  1.0504940587835321e+00 -4.5992787027002884e-04 0.0000000000000000e+00  1.0340758021306800e+00 3.5827757636586262e-03 0.0000000000000000e+00  9.4282706636233415e-01 1.1419063243370095e-01 0.0000000000000000e+00  1.2680082029624216e+00 -1.8366563507430286e-01 0.0000000000000000e+00  1.3887206376952828e+00 -1.4073259808432452e-03 0.0000000000000000e+00  1.0248146414416086e+00 1.2155129795708685e-02 0.0000000000000000e+00  1.0813376033250708e+00 -1.7900627621125629e-02 0.0000000000000000e+00  1.1114415699531379e+00 -8.2282866798334724e-05 0.0000000000000000e+00  1.5177238269749178e+00 -5.1558591104520712e-01 0.0000000000000000e+00  1.0259237871825870e+00 4.1968518770340059e-03 0.0000000000000000e+00  1.4234161671235612e+00 -2.4639029183197045e-01 0.0000000000000000e+00  1.4046043368613574e+00 2.0430094980602494e-03 0.0000000000000000e+00  1.7575755987703932e+00 5.5877217586569605e-02 0.0000000000000000e+00  1.4267110219805137e+00 -1.7452954576763182e-02 0.0000000000000000e+00  1.3574161857529523e+00 6.0278176254813711e-03 0.0000000000000000e+00  9.9402635376715454e-01 8.7987994535763572e-02 0.0000000000000000e+00  9.9660732550817488e-01 -1.3646514139989050e-02 0.0000000000000000e+00  1.0539491219373374e+00 -3.5560776624526107e-02 0.0000000000000000e+00  5.4274652851717553e-01 6.4169940991968222e-01 0.0000000000000000e+00  1.0817051804856097e+00 -1.0987587042013455e-03 0.0000000000000000e+00  1.2147126948136968e+00 1.1432832287098167e-01 0.0000000000000000e+00  1.0393585093373907e+00 7.6645077197217665e-02 0.0000000000000000e+00  8.3783364171210439e-01 3.3323765476620665e-04 0.0000000000000000e+00  9.2484479297736533e-01 -5.5349236233047980e-02 0.0000000000000000e+00  1.0059945510498767e+00 -2.5160797013400987e-02 0.0000000000000000e+00  7.0817462731652880e-01 1.4503148135566085e-02 0.0000000000000000e+00  1.0337171233376412e+00 -1.3014631865470586e-02 0.0000000000000000e+00  1.1138288695543692e+00 5.6815124457021353e-02 0.0000000000000000e+00  8.9608584348585574e-01 6.9799239934820331e-02 0.0000000000000000e+00  9.4609049450576299e-01 2.2792629701448647e-02 0.0000000000000000e+00  9.1233123933856186e-01 8.9324644814920869e-03 0.0000000000000000e+00  1.2154758831059584e+00 3.3838534077990695e-01 0.0000000000000000e+00  1.0423380141957876e+00 1.9212221061009063e-03 0.0000000000000000e+00  1.0569804562530076e+00 -9.8891378194061966e-03 0.0000000000000000e+00  1.0473154041198804e+00 2.3103969044828807e-03 0.0000000000000000e+00  1.0355752015668074e+00 -4.8695136865007562e-03 0.0000000000000000e+00  1.0249884503543318e+00 7.8063427470241456e-03 0.0000000000000000e+00  1.0488269771305361e+00 -5.5753800534297595e-04 0.0000000000000000e+00  9.0025632019752133e-01 1.6413929560188605e-02 0.0000000000000000e+00  1.0163851444878029e+00 -7.6511335167657015e-03 0.0000000000000000e+00  1.0347515072170110e+00 -2.3957182778987528e-02 0.0000000000000000e+00  1.0324080032668377e+00 1.6977260496787658e-03 0.0000000000000000e+00  1.0411187991335036e+00 2.2586340818224705e-03 0.0000000000000000e+00  9.1533075209768833e-01 6.2870790402211121e-03 0.0000000000000000e+00  6.5625009394750711e-01 0.0000000000000000e+00 0.0000000000000000e+00  8.5882707249927182e-01 -2.3305625275820713e-02 0.0000000000000000e+00  9.6033045320247856e-01 2.8045028586957163e-02 0.0000000000000000e+00  2.1539313006536651e-01 -5.4329302631412245e-02 0.0000000000000000e+00  1.0147893558120054e+00 -1.2346757936358374e-02 0.0000000000000000e+00  8.9718745486931506e-01 -2.3759987154031756e-02 0.0000000000000000e+00  1.0408974807839948e+00 6.6647082816558194e-03 0.0000000000000000e+00  1.0255497993858902e+00 -1.0468443302555216e-03 0.0000000000000000e+00  1.0539350564037266e+00 -3.8417972358339952e-03 0.0000000000000000e+00  1.0447786457469712e+00 -3.9840302928886824e-03 0.0000000000000000e+00  1.0435512705454337e+00 5.2263564806422818e-03 0.0000000000000000e+00  1.0323821454534894e+00 -7.7793012849711185e-04 0.0000000000000000e+00  1.0229292575022715e+00 -1.6960190566454564e-02 0.0000000000000000e+00  1.0474680528274880e+00 1.9629879476389778e-02 0.0000000000000000e+00  1.0481517148032322e+00 7.6377159683814434e-03 0.0000000000000000e+00  1.0634068402613175e+00 6.3087241163097248e-03 0.0000000000000000e+00  1.0182020118088910e+00 9.5265693757567982e-04 0.0000000000000000e+00  1.0368150725089926e+00 7.1363335986320050e-03 0.0000000000000000e+00  9.9800496315457365e-01 2.2014900691380398e-02 0.0000000000000000e+00  1.0108890337802787e+00 -3.2637338625839912e-03 0.0000000000000000e+00  1.1794804690247513e+00 -9.7523464597047846e-02 0.0000000000000000e+00  2.7438879016271289e-01 -6.1322935770036824e-01 0.0000000000000000e+00  1.0350840275668309e+00 -7.8379382901490689e-03 0.0000000000000000e+00  1.4430259990212333e+00 -5.9666872665789357e-02 0.0000000000000000e+00  1.0535360245746697e+00 -1.7971245521692786e-03 0.0000000000000000e+00  1.0251218583123372e+00 -5.6006708735478411e-03 0.0000000000000000e+00  1.0510349303174638e+00 1.3316969971518643e-02 0.0000000000000000e+00  1.0204797577378601e+00 -1.6286079470171036e-02 0.0000000000000000e+00  1.0247263018055746e+00 8.3435139057287796e-04 0.0000000000000000e+00  1.0319792049580072e+00 6.0427614544425754e-03 0.0000000000000000e+00  1.0178770103456425e+00 8.3598126062266707e-04 0.0000000000000000e+00  1.0493317624632355e+00 1.2346256550018971e-02 0.0000000000000000e+00  1.0382049074642632e+00 -3.5456155870796082e-03 0.0000000000000000e+00  1.0444738748734363e+00 -2.9349614548078849e-02 0.0000000000000000e+00  1.0502513615389764e+00 -1.5070380452661677e-02 0.0000000000000000e+00  1.0466223784900157e+00 -1.4750838700663977e-03 0.0000000000000000e+00  1.0498244697944232e+00 5.2434075707165637e-03 0.0000000000000000e+00  1.0488969743625514e+00 -7.1442284008881463e-04 0.0000000000000000e+00  1.0251897663493665e+00 -1.7855221775760342e-02 0.0000000000000000e+00  9.6106712818666251e-01 1.7668351571272757e-02 0.0000000000000000e+00  1.0522246399241779e+00 1.5058165602143065e-03 0.0000000000000000e+00  1.0503189874577101e+00 -1.4341379712807408e-03 0.0000000000000000e+00  1.0601764082063536e+00 6.8528954879420899e-03 0.0000000000000000e+00  9.9827934995448564e-01 1.5095574306292684e-02 0.0000000000000000e+00  1.0378333195855596e+00 -7.3719637735602762e-03 0.0000000000000000e+00  1.0231251324132524e+00 5.5436638457381934e-02 0.0000000000000000e+00  1.0849583411378785e+00 -5.3080450390483924e-02 0.0000000000000000e+00  9.9333973243808682e-01 5.1218550920360470e-03 0.0000000000000000e+00  1.0069173114811110e+00 7.5939981563447135e-03 0.0000000000000000e+00  1.0197067132641808e+00 -1.2067719861804512e-03 0.0000000000000000e+00  1.0451741614195671e+00 1.0603740190326552e-02 0.0000000000000000e+00  1.0566253550507803e+00 1.3615125326451103e-02 0.0000000000000000e+00  1.0238225261906213e+00 -3.8717147636177490e-01 0.0000000000000000e+00  9.6857857018950988e-01 -5.2644683335965933e-02 0.0000000000000000e+00  1.0334515827415613e+00 1.7867410338131346e-02 0.0000000000000000e+00  1.0573857766554740e+00 -1.4402419639277117e-02 0.0000000000000