<?xml version="1.0"?>
<VTKFile type="UnstructuredGrid"  version="0.1"  >
<UnstructuredGrid>
<Piece  NumberOfPoints="4269" NumberOfCells="8234">
<Points>
<DataArray  type="Float64"  NumberOfComponents="3"  format="ascii">0 1 0  0 0 0  7.5 0 0  7.5 1 0  1.197537668119028 0.5812868930080463 0  1.2 0.55 0  1.197537668119028 0.5187131069919538 0  1.190211303259031 0.4881966011250105 0  1.178201304837674 0.4592019000520907 0  1.161803398874989 0.4324429495415054 0  1.141421356237309 0.4085786437626905 0  1.117557050458495 0.3881966011250105 0  1.090798099947909 0.3717986951623264 0  1.06180339887499 0.3597886967409693 0  1.031286893008046 0.3524623318809725 0  1 0.35 0  0.9687131069919538 0.3524623318809725 0  0.9381966011250105 0.3597886967409694 0  0.9092019000520906 0.3717986951623264 0  0.8824429495415054 0.3881966011250105 0  0.8585786437626904 0.4085786437626905 0  0.8381966011250105 0.4324429495415054 0  0.8217986951623264 0.4592019000520907 0  0.8097886967409692 0.4881966011250107 0  0.8024623318809725 0.5187131069919539 0  0.8 0.55 0  0.8024623318809725 0.5812868930080463 0  0.8097886967409693 0.6118033988749896 0  0.8217986951623264 0.6407980999479095 0  0.8381966011250105 0.6675570504584947 0  0.8585786437626906 0.6914213562373096 0  0.8824429495415054 0.7118033988749896 0  0.9092019000520907 0.7282013048376736 0  0.9381966011250106 0.7402113032590307 0  0.9687131069919539 0.7475376681190276 0  1 0.75 0  1.031286893008046 0.7475376681190276 0  1.06180339887499 0.7402113032590307 0  1.090798099947909 0.7282013048376736 0  1.117557050458495 0.7118033988749896 0  1.141421356237309 0.6914213562373095 0  1.161803398874989 0.6675570504584947 0  1.178201304837674 0.6407980999479094 0  1.190211303259031 0.6118033988749896 0  3.75 0 0  3.75 1 0  1.875 0 0  1.875 1 0  0.9375 0 0  0.9375 1 0  1.40625 1 0  5.625 1 0  5.625 0 0  2.8125 1 0  2.8125 0 0  4.6875 0 0  4.6875 1 0  6.5625 0 0  6.5625 1 0  5.15625 0.5 0  4.21875 0.5 0  2.34375 0.5 0  3.28125 0.5 0  6.09375 0.5 0  7.5 0.5 0  6.897916666666666 0.5 0  1.842708333333333 0.5 0  0 0.5 0  0.46875 0 0  5.625 0.5302734375 0  7.03125 0 0  6.09375 1 0  2.8125 0.4697265625 0  3.28125 0 0  2.34375 1 0  2.34375 0 0  3.75 0.4697265625 0  4.21875 0 0  4.21875 1 0  4.6875 0.5302734375 0  3.28125 1 0  5.15625 0 0  6.09375 0 0  5.15625 1 0  0.46875 1 0  1.40625 0 0  7.03125 1 0  0.3954638734376499 0.5975780249976004 0  6.495833333333334 0.4072265624999998 0  5.859375 0.25 0  4.905729166666666 0.26513671875 0  4.453125 0.25 0  3.531770833333333 0.73486328125 0  3.968229166666667 0.73486328125 0  2.594270833333333 0.73486328125 0  3.030729166666667 0.73486328125 0  6.328125 0.75 0  7.198958333333334 0.3125000000000002 0  7.198958333333334 0.6874999999999998 0  5.390625 0.25 0  0 0.25 0  2.109375 0.75 0  2.109375 0.25 0  1.51921323205749 0.3418883887525936 0  1.522346610178253 0.6811769608297746 0  5.375456746419271 0.75 0  4.921875 0.76513671875 0  4.437956746419271 0.75 0  3.984375 0.23486328125 0  3.500456746419271 0.25 0  2.578125 0.23486328125 0  3.046875 0.23486328125 0  5.874543253580729 0.75 0  6.642123189445656 0.6909095493086836 0  6.746354166666666 0.2391688368055553 0  0.3197109619185111 0.2850049285972083 0  6.328125 0 0  0.6313375889370429 0.2351325552547357 0  0 0.75 0  6.252283381534729 0.2693808819694041 0  0.234375 1 0  6.948437500000001 0.7543055555555555 0  0.5934018769555939 0.7694151657947577 0  1.858854166666667 0.75 0  1.858854166666667 0.25 0  1.640625 0 0  2.093229166666667 0.5 0  7.5 0.25 0  3.282227579752604 0.75 0  7.5 0.75 0  1.171875 0 0  1.303539853147731 0.2235426933121065 0  5.148177083333333 0.2575683593749998 0  2.351822916666667 0.742431640625 0  1.640625 1 0  4.202380413457425 0.7645435094236485 0  3.047822985053062 0.4701848030090332 0  2.577177014946938 0.4701848030090332 0  4.672792740482199 0.76513671875 0  4.922822985053062 0.5298151969909668 0  5.390593497949761 0.5156244924311331 0  5.610292740482199 0.76513671875 0  3.516602579752604 0.5 0  4.45496853898097 0.4865915990446593 0  5.85753146101903 0.4865915990446593 0  3.749511210123698 0.23486328125 0  3.983397420247396 0.4999999999999999 0  2.343497975411212 0.2346270081980111 0  4.219002024588788 0.2346270081980111 0  0.703125 0 0  2.8125 0.2343755075688669 0  3.046875 0 0  2.578125 0 0  3.515625 0 0  3.984375 0 0  4.453125 1 0  5.390625 1 0  2.109375 0 0  2.109375 1 0  5.625 0.2921402030705575 0  5.390625 0 0  7.265625 0 0  6.796875 0 0  6.328125 1 0  3.046875 1 0  2.578125 1 0  3.984375 1 0  3.515625 1 0  4.453125 0 0  4.921875 0 0  5.859375 0 0  0.703125 1 0  1.171875 1 0  7.265625 1 0  4.921875 1 0  5.859375 1 0  0.234375 0 0  6.796875 1 0  6.980310975276531 0.2285890127127066 0  5.149170481934885 0.772689292163473 0  3.274170481934884 0.2273107078365268 0  6.101334126790364 0.7722468376159667 0  4.678005340872584 0.3000799877067239 0  2.8125 0.6921051326382495 0  3.75 0.6921051326382495 0  0.3515624999999999 0.8134571721668546 0  0.4990405774417521 0.4070099317153735 0  0.1789273931360182 0.625 0  6.31239060814315 0.5298877111157968 0  6.456979773992304 0.1917956348713352 0  6.699870808919271 0.4406293402777773 0  1.337539480965883 0.7944303676599538 0  6.058675797563041 0.2019812164653516 0  0.8203125 0.1643029084422534 0  0.1480856513011711 0.375 0  1.090769294689562 0.1719186776982972 0  7.291088163206459 0.5 0  7.094502414936563 0.5197902199074071 0  0.6046212059042245 0.5730066483871106 0  1.707231580809486 0.6342709161352207 0  1.685961352504593 0.8193269193390785 0  1.374721602852827 0.4600373025865813 0  6.486415510043844 0.5916440776477192 0  1.5234375 0.1508863828685116 0  1.707925830421689 0.3657739208189008 0  0.1674513225045584 0.8278776664019765 0  7.138268756771176 0.1438183366439137 0  7.1484375 0.8616388888888887 0  7.328562530764119 0.819498462930605 0  4.101073710123698 0.3678637200736647 0  1.693878467219965 0.1911955120941053 0  1.577566745468488 0.5110082404081502 0  6.6796875 0.8653871806883484 0  6.498039504430512 0.825568433346395 0  0.7562556668576472 0.8333197949571929 0  4.101045914668806 0.6255195807449272 0  5.030745188395182 0.382829047309028 0  2.476364945868651 0.6095868094762166 0  2.729359843907322 0.8460525663191247 0  2.9296875 0.8740763101564099 0  3.163518307559356 0.6254622797994247 0  3.666859843907322 0.8460525663191247 0  3.8671875 0.8740763101564099 0  4.8046875 0.12592368984359 0  3.14936031382311 0.8606990583876851 0  2.4609375 0.8747622921397776 0  5.023140791101972 0.1392266772452574 0  0 0.125 0  0.1759922923594607 0.1727589856739889 0  4.5703125 0.125 0  7.327755777818006 0.1766156770456191 0  5.5078125 0.125 0  5.719712725029036 0.1460701015352787 0  4.327848962028002 0.3674169956512513 0  5.982681121544351 0.3692637923021713 0  3.398926289876302 0.6245417594909667 0  5.281756792511996 0.3827993367299961 0  2.226822645963271 0.6252438868405666 0  2.234390064317166 0.8676616584526566 0  5.2734375 0.125 0  1.96796875 0.382568359375 0  2.234651037971999 0.3674169956512511 0  1.984114583333333 0.132568359375 0  1.9921875 0.875 0  1.984114583333333 0.632568359375 0  5.748733794462357 0.8678269127183313 0  3.3984375 0.875456329184688 0  1.512925924995415 0.8582958012121853 0  1.359299372802969 0.6275861864990343 0  4.810521420483513 0.4041767793635395 0  0.2996213306116602 0.455339710363317 0  5.999933717403708 0.6388425470751088 0  5.250033449003657 0.6388713364551682 0  3.631676045992918 0.3525406652400928 0  4.3359375 0.8816499670325881 0  4.343577437052484 0.6116511299909198 0  3.375033449003656 0.3611286635448316 0  5.763152151652243 0.6249404690537395 0  4.549347848347757 0.6249404690537396 0  5.5004588702411 0.6403667365776566 0  5.976118394847484 0.8816230218343086 0  5.054722486865804 0.6338007028640954 0  3.164542163493752 0.3520519332736524 0  2.445407482032355 0.3672168403687257 0  4.8046875 0.882568359375 0  4.1015625 0.117431640625 0  2.4609375 0.117431640625 0  2.695556894938151 0.3520510350344335 0  2.929443105061849 0.3520510350344335 0  3.881979231817319 0.3670559016511187 0  3.8671875 0.117431640625 0  4.805389247695744 0.6470047893641744 0  3.399370721942191 0.1184066543556767 0  5.274370721942192 0.881593345644323 0  3.618253274934649 0.1316869186284249 0  2.6953125 0.1171877537844335 0  2.9296875 0.1171877537844335 0  2.21873344389451 0.125 0  4.3359375 0.1171877625080073 0  0.6659898565672709 0.3986593551313873 0  7.363359022954956 0.3481046411219251 0  7.363359022954956 0.6518953588780749 0  5.487719392831826 0.3828237631077121 0  2.695054578344725 0.5809158475691247 0  2.944553877887707 0.5964065668438148 0  0.3515625 0.1201898858097106 0  5.5078125 1 0  4.5703125 1 0  5.031746201297604 0.882568359375 0  3.1640625 0 0  6.2109375 1 0  6.186845385763124 0.6336356480571081 0  4.1015625 1 0  6.810399074069772 0.6495574751396682 0  0.4740615253480797 0.2509287743856873 0  7.052064303830151 0.3684417917792242 0  6.195177069665382 0.1216488332168849 0  5.72300154718324 0.4112068202852788 0  3.879157465495092 0.6111892850691246 0  3.645760045247695 0.5809158475691247 0  6.868257400485771 0.3427840810237202 0  6.612030892260864 0.1521752713064389 0  6.615666885941117 0.3151079644097221 0  4.04296875 0.8633718902669071 0  1.183031453639096 0.8486801864185936 0  6.9140625 0 0  6.859079526500421 0.1398292786950638 0  6.808232443325651 0.7957411753922057 0  6.9140625 1 0  4.544955211100143 0.3675874343205077 0  1.0546875 1 0  6.122060236165557 0.3316791557072867 0  0.5859375 0 0  5.9765625 0 0  5.44921875 0.870984788733638 0  4.51171875 0.870984788733638 0  0.7608354256382215 0.2931261274224557 0  6.386875332239937 0.3156583003094978 0  6.985654756850997 0.6147408423643147 0  6.223797257919172 0.8535621912121121 0  5.936822413218736 0.1338376546337823 0  6.23933008800134 0.4095573603773768 0  0.5414022462152697 0.1305482677949959 0  6.331360438104348 0.1370086318183389 0  0.956404929269873 0.1374266563647954 0  1.2890625 1 0  0.691305981127761 0.6764829884281737 0  3.531251607241209 0.8678916320952239 0  2.59787442813022 
[...]
<PointData  Vectors="f_71627"> 
<DataArray  type="Float64"  Name="f_71627"  NumberOfComponents="3" format="ascii">0.0000000000000000e+00 0.0000000000000000e+00 0.0000000000000000e+00  0.0000000000000000e+00 0.0000000000000000e+00 0.0000000000000000e+00  0.0000000000000000e+00 0.0000000000000000e+00 0.0000000000000000e+00  0.0000000000000000e+00 0.0000000000000000e+00 0.0000000000000000e+00  0.0000000000000000e+00 0.0000000000000000e+00 0.0000000000000000e+00  0.0000000000000000e+00 0.0000000000000000e+00 0.0000000000000000e+00  0.0000000000000000e+00 0.0000000000000000e+00 0.0000000000000000e+00  0.0000000000000000e+00 0.0000000000000000e+00 0.0000000000000000e+00  0.0000000000000000e+00 0.0000000000000000e+00 0.0000000000000000e+00  0.0000000000000000e+00 0.0000000000000000e+00 0.0000000000000000e+00  0.0000000000000000e+00 0.0000000000000000e+00 0.0000000000000000e+00  0.0000000000000000e+00 0.0000000000000000e+00 0.0000000000000000e+00  0.0000000000000000e+00 0.0000000000000000e+00 0.0000000000000000e+00  0.0000000000000000e+00 0.0000000000000000e+00 0.0000000000000000e+00  0.0000000000000000e+00 0.0000000000000000e+00 0.0000000000000000e+00  0.0000000000000000e+00 0.0000000000000000e+00 0.0000000000000000e+00  0.0000000000000000e+00 0.0000000000000000e+00 0.0000000000000000e+00  0.0000000000000000e+00 0.0000000000000000e+00 0.0000000000000000e+00  0.0000000000000000e+00 0.0000000000000000e+00 0.0000000000000000e+00  0.0000000000000000e+00 0.0000000000000000e+00 0.0000000000000000e+00  0.0000000000000000e+00 0.0000000000000000e+00 0.0000000000000000e+00  0.0000000000000000e+00 0.0000000000000000e+00 0.0000000000000000e+00  0.0000000000000000e+00 0.0000000000000000e+00 0.0000000000000000e+00  0.0000000000000000e+00 0.0000000000000000e+00 0.0000000000000000e+00  0.0000000000000000e+00 0.0000000000000000e+00 0.0000000000000000e+00  0.0000000000000000e+00 0.0000000000000000e+00 0.0000000000000000e+00  0.0000000000000000e+00 0.0000000000000000e+00 0.0000000000000000e+00  0.0000000000000000e+00 0.0000000000000000e+00 0.0000000000000000e+00  0.0000000000000000e+00 0.0000000000000000e+00 0.0000000000000000e+00  0.0000000000000000e+00 0.0000000000000000e+00 0.0000000000000000e+00  0.0000000000000000e+00 0.0000000000000000e+00 0.0000000000000000e+00  0.0000000000000000e+00 0.0000000000000000e+00 0.0000000000000000e+00  0.0000000000000000e+00 0.0000000000000000e+00 0.0000000000000000e+00  0.0000000000000000e+00 0.0000000000000000e+00 0.0000000000000000e+00  0.0000000000000000e+00 0.0000000000000000e+00 0.0000000000000000e+00  0.0000000000000000e+00 0.0000000000000000e+00 0.0000000000000000e+00  0.0000000000000000e+00 0.0000000000000000e+00 0.0000000000000000e+00  0.0000000000000000e+00 0.0000000000000000e+00 0.0000000000000000e+00  0.0000000000000000e+00 0.0000000000000000e+00 0.0000000000000000e+00  0.0000000000000000e+00 0.0000000000000000e+00 0.0000000000000000e+00  0.0000000000000000e+00 0.0000000000000000e+00 0.0000000000000000e+00  0.0000000000000000e+00 0.0000000000000000e+00 0.0000000000000000e+00  0.0000000000000000e+00 0.0000000000000000e+00 0.0000000000000000e+00  0.0000000000000000e+00 0.0000000000000000e+00 0.0000000000000000e+00  0.0000000000000000e+00 0.0000000000000000e+00 0.0000000000000000e+00  0.0000000000000000e+00 0.0000000000000000e+00 0.0000000000000000e+00  0.0000000000000000e+00 0.0000000000000000e+00 0.0000000000000000e+00  0.0000000000000000e+00 0.0000000000000000e+00 0.0000000000000000e+00  0.0000000000000000e+00 0.0000000000000000e+00 0.0000000000000000e+00  0.0000000000000000e+00 0.0000000000000000e+00 0.0000000000000000e+00  0.0000000000000000e+00 0.0000000000000000e+00 0.0000000000000000e+00  0.0000000000000000e+00 0.0000000000000000e+00 0.0000000000000000e+00  0.0000000000000000e+00 0.0000000000000000e+00 0.0000000000000000e+00  0.0000000000000000e+00 0.0000000000000000e+00 0.0000000000000000e+00  0.0000000000000000e+00 0.0000000000000000e+00 0.0000000000000000e+00  0.0000000000000000e+00 0.0000000000000000e+00 0.0000000000000000e+00  0.0000000000000000e+00 0.0000000000000000e+00 0.0000000000000000e+00  0.0000000000000000e+00 0.0000000000000000e+00 0.0000000000000000e+00  0.0000000000000000e+00 0.0000000000000000e+00 0.0000000000000000e+00  1.5597901045915510e+00 -1.0600037187939142e+00 0.0000000000000000e+00  1.9006994517436337e+00 -7.4859831880290406e-01 0.0000000000000000e+00  1.9033347942050047e+00 1.2541611598945270e+00 0.0000000000000000e+00  2.0930012835638099e+00 3.1375055306097521e-02 0.0000000000000000e+00  1.4631859422286742e+00 -3.1623719546586132e-01 0.0000000000000000e+00  1.5000002115408577e+00 0.0000000000000000e+00 0.0000000000000000e+00  1.6313129244786424e+00 8.6223030841415016e-01 0.0000000000000000e+00  1.8877242494801560e+00 -1.7018346980369445e+00 0.0000000000000000e+00  1.5000002115408577e+00 0.0000000000000000e+00 0.0000000000000000e+00  0.0000000000000000e+00 0.0000000000000000e+00 0.0000000000000000e+00  1.7402889403350745e+00 5.9136637559086658e-01 0.0000000000000000e+00  0.0000000000000000e+00 0.0000000000000000e+00 0.0000000000000000e+00  0.0000000000000000e+00 0.0000000000000000e+00 0.0000000000000000e+00  1.6149256833422900e+00 -5.4024957815407826e-01 0.0000000000000000e+00  0.0000000000000000e+00 0.0000000000000000e+00 0.0000000000000000e+00  0.0000000000000000e+00 0.0000000000000000e+00 0.0000000000000000e+00  0.0000000000000000e+00 0.0000000000000000e+00 0.0000000000000000e+00  1.5173832900240873e+00 4.4796403845242005e-01 0.0000000000000000e+00  0.0000000000000000e+00 0.0000000000000000e+00 0.0000000000000000e+00  0.0000000000000000e+00 0.0000000000000000e+00 0.0000000000000000e+00  1.4692683861656262e+00 8.4917637974134219e-01 0.0000000000000000e+00  0.0000000000000000e+00 0.0000000000000000e+00 0.0000000000000000e+00  0.0000000000000000e+00 0.0000000000000000e+00 0.0000000000000000e+00  0.0000000000000000e+00 0.0000000000000000e+00 0.0000000000000000e+00  0.0000000000000000e+00 0.0000000000000000e+00 0.0000000000000000e+00  0.0000000000000000e+00 0.0000000000000000e+00 0.0000000000000000e+00  0.0000000000000000e+00 0.0000000000000000e+00 0.0000000000000000e+00  0.0000000000000000e+00 0.0000000000000000e+00 0.0000000000000000e+00  1.3588579171462540e+00 -4.8384817703236403e-02 0.0000000000000000e+00  1.6969235214884961e+00 -5.3207776299363863e-01 0.0000000000000000e+00  8.6757710658621190e-01 4.7994391809645703e-01 0.0000000000000000e+00  7.5706488565387131e-01 8.7323344420030674e-02 0.0000000000000000e+00  1.6836852178051296e+00 4.5484822506367006e-01 0.0000000000000000e+00  3.8393543480769643e-01 1.0950210353666756e+00 0.0000000000000000e+00  7.0842054274606181e-01 -9.1616330980572147e-01 0.0000000000000000e+00  1.1334879049916535e+00 1.7443137970385408e-01 0.0000000000000000e+00  4.9882667150791155e-01 -6.8465013971738742e-01 0.0000000000000000e+00  9.5145992693866033e-01 -4.4033483071849894e-01 0.0000000000000000e+00  1.1284128433290981e+00 1.7719437568145746e-01 0.0000000000000000e+00  1.1350923476915395e+00 5.2382392963165780e-01 0.0000000000000000e+00  1.5488240948564971e+00 -3.5608729083181556e-01 0.0000000000000000e+00  1.1250001586556433e+00 0.0000000000000000e+00 0.0000000000000000e+00  -2.1678977726175885e-01 -3.2104551563883238e-01 0.0000000000000000e+00  1.6472525665495652e+00 -8.9058323855637347e-02 0.0000000000000000e+00  1.2771508247018297e+00 9.4085938327999397e-01 0.0000000000000000e+00  1.2879784930184326e+00 -8.1962305170217159e-02 0.0000000000000000e+00  5.6637946160769614e-01 -6.4645612134008523e-01 0.0000000000000000e+00  1.4235720328221844e+00 -3.9348533097694023e-03 0.0000000000000000e+00  3.1088602224870576e-01 4.8683464257340558e-01 0.0000000000000000e+00  9.3898487879873460e-01 -6.8364672998517140e-01 0.0000000000000000e+00  1.4840951709934433e+00 7.0398067707953604e-01 0.0000000000000000e+00  1.1564170133861611e+00 4.8744412587138342e-01 0.0000000000000000e+00  1.4750670193772406e+00 -5.3031913799605845e-01 0.0000000000000000e+00  1.0962409299863882e+00 7.4088433996203296e-01 0.0000000000000000e+00  7.5125123786237680e-01 -1.1976754789415760e-01 0.0000000000000000e+00  1.7531486121405215e+00 2.4303434686690775e-01 0.0000000000000000e+00  1.2399950292044732e+00 -1.0139952688431940e-01 0.0000000000000000e+00  0.0000000000000000e+00 0.0000000000000000e+00 0.0000000000000000e+00  1.2815733624039267e+00 -3.1330050945717969e-01 0.0000000000000000e+00  1.1250001586556433e+00 0.0000000000000000e+00 0.0000000000000000e+00  1.0692427979165200e+00 -4.8031734919106522e-01 0.0000000000000000e+00  0.0000000000000000e+00 0.0000000000000000e+00 0.0000000000000000e+00  6.0423949357820128e-01 9.3035555501099321e-01 0.0000000000000000e+00  1.0117888445590542e+00 1.9128042492401282e-01 0.0000000000000000e+00  8.4210234584939758e-01 -4.1365048704397428e-01 0.0000000000000000e+00  7.9263092710186678e-01 -6.2683664961946639e-01 0.0000000000000000e+00  0.0000000000000000e+00 0.0000000000000000e+00 0.0000000000000000e+00  1.8746715324511303e+00 -7.9662425566130890e-01 0.0000000000000000e+00  1.1250001586556433e+00 0.0000000000000000e+00 0.0000000000000000e+00  -2.3981172360166311e-01 1.3797024606089509e-01 0.0000000000000000e+00  1.1250001586556433e+00 0.0000000000000000e+00 0.0000000000000000e+00  0.0000000000000000e+00 0.0000000000000000e+00 0.0000000000000000e+00  1.9686824497038544e+00 4.1648453808249059e-01 0.0000000000000000e+00  9.6557727071472810e-01 -6.3283538047986554e-01 0.0000000000000000e+00  1.0943791160498623e-01 8.8538474354210261e-01 0.0000000000000000e+00  0.0000000000000000e+00 0.0000000000000000e+00 0.0000000000000000e+00  3.6005916960251394e-01 -3.5822141620711412e-01 0.0000000000000000e+00  1.9823291199790085e+00 -9.7802079312470525e-01 0.0000000000000000e+00  1.6532802022331112e+00 3.4893513928619185e-01 0.0000000000000000e+00  1.0280076965248206e+00 5.7879559037657502e-01 0.0000000000000000e+00  1.7694450410733664e+00 6.3425000089540398e-02 0.0000000000000000e+00  1.5202997911786538e+00 -7.0954961493404478e-01 0.0000000000000000e+00  4.8095497769804046e-01 4.2218249761463333e-01 0.0000000000000000e+00  1.7988038058893312e+00 1.1050865618695782e+00 0.0000000000000000e+00  1.8984856252885027e+00 9.7287803374896686e-01 0.0000000000000000e+00  1.5642636284824993e+00 1.0131333965993046e+00 0.0000000000000000e+00  7.2394777625167006e-01 2.2330277747638785e-01 0.0000000000000000e+00  1.6411304292198221e+00 -1.3113566606281468e+00 0.0000000000000000e+00  1.5638938058244420e+00 5.9378144650771580e-01 0.0000000000000000e+00  1.6879691647261510e+00 -2.1048156178326977e-01 0.0000000000000000e+00  0.0000000000000000e+00 0.0000000000000000e+00 0.0000000000000000e+00  1.5738649692143911e+00 -2.8868892846736738e-01 0.0000000000000000e+00  0.0000000000000000e+00 0.0000000000000000e+00 0.0000000000000000e+00  0.0000000000000000e+00 0.0000000000000000e+00 0.0000000000000000e+00  0.0000000000000000e+00 0.0000000000000000e+00 0.0000000000000000e+00  0.0000000000000000e+00 0.0000000000000000e+00 0.0000000000000000e+00  0.0000000000000000e+00 0.0000000000000000e+00 0.0000000000000000e+00  0.0000000000000000e+00 0.0000000000000000e+00 0.0000000000000000e+00  0.0000000000000000e+00 0.0000000000000000e+00 0.0000000000000000e+00  0.0000000000000000e+00 0.0000000000000000e+00 0.0000000000000000e+00  1.6866022984688309e+00 5.7793622969209424e-01 0.0000000000000000e+00  0.0000000000000000e+00 0.0000000000000000e+00 0.0000000000000000e+00  0.0000000000000000e+00 0.0000000000000000e+00 0.0000000000000000e+00  0.0000000000000000e+00 0.0000000000000000e+00 0.0000000000000000e+00  0.0000000000000000e+00 0.0000000000000000e+00 0.0000000000000000e+00  0.0000000000000000e+00 0.0000000000000000e+00 0.0000000000000000e+00  0.0000000000000000e+00 0.0000000000000000e+00 0.0000000000000000e+00  0.0000000000000000e+00 0.0000000000000000e+00 0.0000000000000000e+00  0.0000000000000000e+00 0.0000000000000000e+00 0.0000000000000000e+00  0.0000000000000000e+00 0.0000000000000000e+00 0.0000000000000000e+00  0.0000000000000000e+00 0.0000000000000000e+00 0.0000000000000000e+00  0.0000000000000000e+00 0.0000000000000000e+00 0.0000000000000000e+00  0.0000000000000000e+00 0.0000000000000000e+00 0.0000000000000000e+00  0.0000000000000000e+00 0.0000000000000000e+00 0.0000000000000000e+00  0.0000000000000000e+00 0.0000000000000000e+00 0.0000000000000000e+00  0.0000000000000000e+00 0.0000000000000000e+00 0.0000000000000000e+00  0.0000000000000000e+00 0.0000000000000000e+00 0.0000000000000000e+00  0.0000000000000000e+00 0.0000000000000000e+00 0.0000000000000000e+00  0.0000000000000000e+00 0.0000000000000000e+00 0.0000000000000000e+00  1.2762053941510885e+00 4.5739484280193732e-01 0.0000000000000000e+00  1.0805983400420038e+00 -4.5793523884354032e-01 0.0000000000000000e+00  1.6216413755971957e+00 -7.8858217135426401e-02 0.0000000000000000e+00  1.3946471335206203e+00 -1.8389121921856830e-01 0.0000000000000000e+00  1.2346485167366765e+00 6.8300575225856530e-01 0.0000000000000000e+00  1.1683563809673516e+00 -5.2837904425729065e-01 0.0000000000000000e+00  8.9952113698865233e-01 2.0727443528280118e-01 0.0000000000000000e+00  8.8926328200753757e-01 1.1102122622405480e-02 0.0000000000000000e+00  1.3675791055783282e+00 -1.9263933619176832e-01 0.0000000000000000e+00  1.3927107951938538e+00 -3.0929518958566073e-02 0.0000000000000000e+00  1.4507615061225845e+00 -7.9598174273810574e-01 0.0000000000000000e+00  1.3537970189832933e+00 -3.6696791141384416e-01 0.0000000000000000e+00  1.8842581674740784e+00 9.2806961014117353e-02 0.0000000000000000e+00  2.0299785856590336e+00 -2.0259429220615660e-01 0.0000000000000000e+00  6.9352346446255142e-01 -9.7396660369252944e-02 0.0000000000000000e+00  1.4918284174875163e+00 -3.2830865754117566e-01 0.0000000000000000e+00  1.4049863372414777e+00 -4.2018304036624314e-02 0.0000000000000000e+00  1.9686938840334660e+00 7.5872046045514169e-03 0.0000000000000000e+00  1.3551909650512481e+00 3.8229179801039603e-01 0.0000000000000000e+00  1.4994438962373657e+00 1.0533406116906907e+00 0.0000000000000000e+00  1.1385905632443407e+00 -1.5923180821166612e-02 0.0000000000000000e+00  2.1445603203653576e+00 -1.2145029472240809e+00 0.0000000000000000e+00  1.3278021394792365e+00 -6.3143515566818553e-01 0.0000000000000000e+00  7.0899569035846510e-01 5.7478170514785243e-01 0.0000000000000000e+00  1.2936703525510533e+00 -8.5370721430738961e-01 0.0000000000000000e+00  1.2052191039879248e+00 2.2754334766274273e-01 0.0000000000000000e+00  4.2010235663596818e-01 5.0324539650180955e-01 0.0000000000000000e+00  8.4787121041940339e-01 -1.2171356533643532e-02 0.0000000000000000e+00  8.1262159885448226e-01 2.2200765506565495e-01 0.0000000000000000e+00  7.3969822076373370e-01 4.1772154432079467e-01 0.0000000000000000e+00  1.0201790135992801e+00 3.6090971994101811e-01 0.0000000000000000e+00  1.6612142364054543e+00 -9.0257594923322970e-01 0.0000000000000000e+00  9.3964784580786631e-01 -6.3050680169497428e-02 0.0000000000000000e+00  2.1007067352159861e-01 1.1950104084748883e+00 0.0000000000000000e+00  -6.9229009567907132e-02 1.4595170965256716e-03 0.0000000000000000e+00  1.3026717365575258e-01 -4.5902965684417141e-01 0.0000000000000000e+00  1.1001305076686125e+00 3.9550246625803254e-01 0.0000000000000000e+00  1.1877978377545053e+00 -1.1419861510205678e+00 0.0000000000000000e+00  1.3998647373232973e+00 -5.0841026209271056e-01 0.0000000000000000e+00  1.2079838854775078e+00 1.1842081088758389e+00 0.0000000000000000e+00  7.6915196138944708e-01 -4.6635864947879781e-02 0.0000000000000000e+00  2.3279979999418324e-01 -3.1502908898796506e-01 0.0000000000000000e+00  9.4791395723683658e-01 -7.4846067149911788e-01 0.0000000000000000e+00  7.6303436716317108e-01 2.1960955482992386e-01 0.0000000000000000e+00  8.0834110722310115e-01 -2.1049402718059440e-01 0.0000000000000000e+00  2.4756332767054853e-01 1.3819637052735290e-01 0.0000000000000000e+00  -1.6743006911747943e-01 -1.9331973606921590e-01 0.0000000000000000e+00  7.4560352978300559e-01 1.6335943498446068e-01 0.0000000000000000e+00  1.7469602946768273e-01 -2.1286292089624365e-01 0.0000000000000000e+00  6.5625009254912525e-01 0.0000000000000000e+00 0.0000000000000000e+00  8.6866005192031626e-01 -4.0192528907266191e-02 0.0000000000000000e+00  7.0621302535501984e-01 2.4636262904429720e-01 0.0000000000000000e+00  7.8886731097306539e-01 3.3736392346137772e-01 0.0000000000000000e+00  1.4022215112081073e+00 1.1852837090564898e-01 0.0000000000000000e+00  9.2029394143774690e-01 2.4445190356896554e-01 0.0000000000000000e+00  2.0041300705611467e+00 1.1938397734742034e-01 0.0000000000000000e+00  1.1977015200926469e+00 1.4123262055747079e-01 0.0000000000000000e+00  1.0448987607037354e+00 9.5951218712797237e-01 0.0000000000000000e+00  1.5569168237073419e+00 -1.0913689986661570e+00 0.0000000000000000e+00  7.4207588936333735e-01 2.4058567219036561e-01 0.0000000000000000e+00  -2.5892464825819340e-02 1.8648865325386685e-01 0.0000000000000000e+00  7.9912177014578911e-01 -3.1259234614184483e-01 0.0000000000000000e+00  1.5177402173949948e+00 -1.0128270561495629e+00 0.0000000000000000e+00  2.1096464692130015e+00 2.8942579530811008e-01 0.0000000000000000e+00  1.5846847078429500e+00 -1.0558110229859123e-01 0.0000000000000000e+00  1.4392179459297513e-01 -8.5995009687037507e-02 0.0000000000000000e+00  1.0930252232102262e+00 -7.6238860169577094e-01 0.0000000000000000e+00  4.2229335444356964e-01 4.5815251749246377e-01 0.0000000000000000e+00  -1.6077954526244395e-01 4.4809679165408323e-01 0.0000000000000000e+00  1.8157827283388959e+00 -4.5360881901602790e-01 0.0000000000000000e+00  -8.0889462701816539e-01 4.1422067197950546e-01 0.0000000000000000e+00  1.5009937374683309e+00 6.5174498553654281e-01 0.0000000000000000e+00  1.4595912064329990e+00 -8.7275308954507372e-02 0.0000000000000000e+00  1.5039883580501818e+00 2.3489850807651752e-01 0.0000000000000000e+00  1.2188258628490563e+00 -1.1519041954010993e+00 0.0000000000000000e+00  1.4753460529033440e+00 1.0066855924819302e+00 0.0000000000000000e+00  -1.5011534729497666e-01 6.1755953189534321e-02 0.0000000000000000e+00  1.3549344853764189e+00 4.4285461561376421e-01 0.0000000000000000e+00  1.9378272154444700e+00 5.7061070620613286e-01 0.0000000000000000e+00  1.2868153613378011e+00 1.2264364129081513e+00 0.0000000000000000e+00  1.1471537930271085e+00 8.9317886408853386e-01 0.0000000000000000e+00  9.8403584942472422e-01 -2.7867495085137570e-02 0.0000000000000000e+00  1.1587241802417909e+00 1.6282958064662977e-02 0.0000000000000000e+00  1.6533152153973751e+00 -3.8560488696922512e-01 0.0000000000000000e+00  2.0461107730434236e+00 -4.7044483593018560e-01 0.0000000000000000e+00  1.7689973397957219e+00 1.1275570966472872e+00 0.0000000000000000e+00  9.1827732308112819e-01 2.9827240683782702e-02 0.0000000000000000e+00  8.7180516364047733e-01 4.1841980553679214e-02 0.0000000000000000e+00  6.0271302346545119e-01 8.7422801466514086e-02 0.0000000000000000e+00  1.3960086745199771e+00 -1.1019763567802258e-01 0.0000000000000000e+00  1.7027784661760024e+00 -6.5155938794240120e-01 0.0000000000000000e+00  1.4049393696220664e+00 -6.4697526846794062e-01 0.0000000000000000e+00  2.8891398589400991e-01 1.5316349459779072e-01 0.0000000000000000e+00  1.4758246470730576e+00 4.0298507090884617e-01 0.0000000000000000e+00  1.2752699345850955e+00 2.5764785401970774e-01 0.0000000000000000e+00  3.9251636698125320e-01 -1.6594332570219925e-01 0.0000000000000000e+00  7.8583325848005414e-01 2.5501558895726262e-01 0.0000000000000000e+00  2.4721196238173729e-01 1.7009077592915670e-01 0.0000000000000000e+00  5.7936683815368872e-01 -6.0079878307951295e-01 0.0000000000000000e+00  1.2480867439915666e+00 1.7599926915942857e-01 0.0000000000000000e+00  1.0958711881798271e+00 2.5692440128281846e-01 0.0000000000000000e+00  1.2561736193093735e+00 -4.4780473631079948e-01 0.0000000000000000e+00  1.3731393012342730e+00 2.2799138452562562e-01 0.0000000000000000e+00  1.3065775748141999e+00 6.0692864840784866e-03 0.0000000000000000e+00  1.8671231821179981e+00 -1.2326659399022623e-01 0.0000000000