<?xml version="1.0"?>
<VTKFile type="UnstructuredGrid"  version="0.1"  >
<UnstructuredGrid>
<Piece  NumberOfPoints="4269" NumberOfCells="8234">
<Points>
<DataArray  type="Float64"  NumberOfComponents="3"  format="ascii">0 1 0  0 0 0  7.5 0 0  7.5 1 0  1.197537668119028 0.5812868930080463 0  1.2 0.55 0  1.197537668119028 0.5187131069919538 0  1.190211303259031 0.4881966011250105 0  1.178201304837674 0.4592019000520907 0  1.161803398874989 0.4324429495415054 0  1.141421356237309 0.4085786437626905 0  1.117557050458495 0.3881966011250105 0  1.090798099947909 0.3717986951623264 0  1.06180339887499 0.3597886967409693 0  1.031286893008046 0.3524623318809725 0  1 0.35 0  0.9687131069919538 0.3524623318809725 0  0.9381966011250105 0.3597886967409694 0  0.9092019000520906 0.3717986951623264 0  0.8824429495415054 0.3881966011250105 0  0.8585786437626904 0.4085786437626905 0  0.8381966011250105 0.4324429495415054 0  0.8217986951623264 0.4592019000520907 0  0.8097886967409692 0.4881966011250107 0  0.8024623318809725 0.5187131069919539 0  0.8 0.55 0  0.8024623318809725 0.5812868930080463 0  0.8097886967409693 0.6118033988749896 0  0.8217986951623264 0.6407980999479095 0  0.8381966011250105 0.6675570504584947 0  0.8585786437626906 0.6914213562373096 0  0.8824429495415054 0.7118033988749896 0  0.9092019000520907 0.7282013048376736 0  0.9381966011250106 0.7402113032590307 0  0.9687131069919539 0.7475376681190276 0  1 0.75 0  1.031286893008046 0.7475376681190276 0  1.06180339887499 0.7402113032590307 0  1.090798099947909 0.7282013048376736 0  1.117557050458495 0.7118033988749896 0  1.141421356237309 0.6914213562373095 0  1.161803398874989 0.6675570504584947 0  1.178201304837674 0.6407980999479094 0  1.190211303259031 0.6118033988749896 0  3.75 0 0  3.75 1 0  1.875 0 0  1.875 1 0  0.9375 0 0  0.9375 1 0  1.40625 1 0  5.625 1 0  5.625 0 0  2.8125 1 0  2.8125 0 0  4.6875 0 0  4.6875 1 0  6.5625 0 0  6.5625 1 0  5.15625 0.5 0  4.21875 0.5 0  2.34375 0.5 0  3.28125 0.5 0  6.09375 0.5 0  7.5 0.5 0  6.897916666666666 0.5 0  1.842708333333333 0.5 0  0 0.5 0  0.46875 0 0  5.625 0.5302734375 0  7.03125 0 0  6.09375 1 0  2.8125 0.4697265625 0  3.28125 0 0  2.34375 1 0  2.34375 0 0  3.75 0.4697265625 0  4.21875 0 0  4.21875 1 0  4.6875 0.5302734375 0  3.28125 1 0  5.15625 0 0  6.09375 0 0  5.15625 1 0  0.46875 1 0  1.40625 0 0  7.03125 1 0  0.3954638734376499 0.5975780249976004 0  6.495833333333334 0.4072265624999998 0  5.859375 0.25 0  4.905729166666666 0.26513671875 0  4.453125 0.25 0  3.531770833333333 0.73486328125 0  3.968229166666667 0.73486328125 0  2.594270833333333 0.73486328125 0  3.030729166666667 0.73486328125 0  6.328125 0.75 0  7.198958333333334 0.3125000000000002 0  7.198958333333334 0.6874999999999998 0  5.390625 0.25 0  0 0.25 0  2.109375 0.75 0  2.109375 0.25 0  1.51921323205749 0.3418883887525936 0  1.522346610178253 0.6811769608297746 0  5.375456746419271 0.75 0  4.921875 0.76513671875 0  4.437956746419271 0.75 0  3.984375 0.23486328125 0  3.500456746419271 0.25 0  2.578125 0.23486328125 0  3.046875 0.23486328125 0  5.874543253580729 0.75 0  6.642123189445656 0.6909095493086836 0  6.746354166666666 0.2391688368055553 0  0.3197109619185111 0.2850049285972083 0  6.328125 0 0  0.6313375889370429 0.2351325552547357 0  0 0.75 0  6.252283381534729 0.2693808819694041 0  0.234375 1 0  6.948437500000001 0.7543055555555555 0  0.5934018769555939 0.7694151657947577 0  1.858854166666667 0.75 0  1.858854166666667 0.25 0  1.640625 0 0  2.093229166666667 0.5 0  7.5 0.25 0  3.282227579752604 0.75 0  7.5 0.75 0  1.171875 0 0  1.303539853147731 0.2235426933121065 0  5.148177083333333 0.2575683593749998 0  2.351822916666667 0.742431640625 0  1.640625 1 0  4.202380413457425 0.7645435094236485 0  3.047822985053062 0.4701848030090332 0  2.577177014946938 0.4701848030090332 0  4.672792740482199 0.76513671875 0  4.922822985053062 0.5298151969909668 0  5.390593497949761 0.5156244924311331 0  5.610292740482199 0.76513671875 0  3.516602579752604 0.5 0  4.45496853898097 0.4865915990446593 0  5.85753146101903 0.4865915990446593 0  3.749511210123698 0.23486328125 0  3.983397420247396 0.4999999999999999 0  2.343497975411212 0.2346270081980111 0  4.219002024588788 0.2346270081980111 0  0.703125 0 0  2.8125 0.2343755075688669 0  3.046875 0 0  2.578125 0 0  3.515625 0 0  3.984375 0 0  4.453125 1 0  5.390625 1 0  2.109375 0 0  2.109375 1 0  5.625 0.2921402030705575 0  5.390625 0 0  7.265625 0 0  6.796875 0 0  6.328125 1 0  3.046875 1 0  2.578125 1 0  3.984375 1 0  3.515625 1 0  4.453125 0 0  4.921875 0 0  5.859375 0 0  0.703125 1 0  1.171875 1 0  7.265625 1 0  4.921875 1 0  5.859375 1 0  0.234375 0 0  6.796875 1 0  6.980310975276531 0.2285890127127066 0  5.149170481934885 0.772689292163473 0  3.274170481934884 0.2273107078365268 0  6.101334126790364 0.7722468376159667 0  4.678005340872584 0.3000799877067239 0  2.8125 0.6921051326382495 0  3.75 0.6921051326382495 0  0.3515624999999999 0.8134571721668546 0  0.4990405774417521 0.4070099317153735 0  0.1789273931360182 0.625 0  6.31239060814315 0.5298877111157968 0  6.456979773992304 0.1917956348713352 0  6.699870808919271 0.4406293402777773 0  1.337539480965883 0.7944303676599538 0  6.058675797563041 0.2019812164653516 0  0.8203125 0.1643029084422534 0  0.1480856513011711 0.375 0  1.090769294689562 0.1719186776982972 0  7.291088163206459 0.5 0  7.094502414936563 0.5197902199074071 0  0.6046212059042245 0.5730066483871106 0  1.707231580809486 0.6342709161352207 0  1.685961352504593 0.8193269193390785 0  1.374721602852827 0.4600373025865813 0  6.486415510043844 0.5916440776477192 0  1.5234375 0.1508863828685116 0  1.707925830421689 0.3657739208189008 0  0.1674513225045584 0.8278776664019765 0  7.138268756771176 0.1438183366439137 0  7.1484375 0.8616388888888887 0  7.328562530764119 0.819498462930605 0  4.101073710123698 0.3678637200736647 0  1.693878467219965 0.1911955120941053 0  1.577566745468488 0.5110082404081502 0  6.6796875 0.8653871806883484 0  6.498039504430512 0.825568433346395 0  0.7562556668576472 0.8333197949571929 0  4.101045914668806 0.6255195807449272 0  5.030745188395182 0.382829047309028 0  2.476364945868651 0.6095868094762166 0  2.729359843907322 0.8460525663191247 0  2.9296875 0.8740763101564099 0  3.163518307559356 0.6254622797994247 0  3.666859843907322 0.8460525663191247 0  3.8671875 0.8740763101564099 0  4.8046875 0.12592368984359 0  3.14936031382311 0.8606990583876851 0  2.4609375 0.8747622921397776 0  5.023140791101972 0.1392266772452574 0  0 0.125 0  0.1759922923594607 0.1727589856739889 0  4.5703125 0.125 0  7.327755777818006 0.1766156770456191 0  5.5078125 0.125 0  5.719712725029036 0.1460701015352787 0  4.327848962028002 0.3674169956512513 0  5.982681121544351 0.3692637923021713 0  3.398926289876302 0.6245417594909667 0  5.281756792511996 0.3827993367299961 0  2.226822645963271 0.6252438868405666 0  2.234390064317166 0.8676616584526566 0  5.2734375 0.125 0  1.96796875 0.382568359375 0  2.234651037971999 0.3674169956512511 0  1.984114583333333 0.132568359375 0  1.9921875 0.875 0  1.984114583333333 0.632568359375 0  5.748733794462357 0.8678269127183313 0  3.3984375 0.875456329184688 0  1.512925924995415 0.8582958012121853 0  1.359299372802969 0.6275861864990343 0  4.810521420483513 0.4041767793635395 0  0.2996213306116602 0.455339710363317 0  5.999933717403708 0.6388425470751088 0  5.250033449003657 0.6388713364551682 0  3.631676045992918 0.3525406652400928 0  4.3359375 0.8816499670325881 0  4.343577437052484 0.6116511299909198 0  3.375033449003656 0.3611286635448316 0  5.763152151652243 0.6249404690537395 0  4.549347848347757 0.6249404690537396 0  5.5004588702411 0.6403667365776566 0  5.976118394847484 0.8816230218343086 0  5.054722486865804 0.6338007028640954 0  3.164542163493752 0.3520519332736524 0  2.445407482032355 0.3672168403687257 0  4.8046875 0.882568359375 0  4.1015625 0.117431640625 0  2.4609375 0.117431640625 0  2.695556894938151 0.3520510350344335 0  2.929443105061849 0.3520510350344335 0  3.881979231817319 0.3670559016511187 0  3.8671875 0.117431640625 0  4.805389247695744 0.6470047893641744 0  3.399370721942191 0.1184066543556767 0  5.274370721942192 0.881593345644323 0  3.618253274934649 0.1316869186284249 0  2.6953125 0.1171877537844335 0  2.9296875 0.1171877537844335 0  2.21873344389451 0.125 0  4.3359375 0.1171877625080073 0  0.6659898565672709 0.3986593551313873 0  7.363359022954956 0.3481046411219251 0  7.363359022954956 0.6518953588780749 0  5.487719392831826 0.3828237631077121 0  2.695054578344725 0.5809158475691247 0  2.944553877887707 0.5964065668438148 0  0.3515625 0.1201898858097106 0  5.5078125 1 0  4.5703125 1 0  5.031746201297604 0.882568359375 0  3.1640625 0 0  6.2109375 1 0  6.186845385763124 0.6336356480571081 0  4.1015625 1 0  6.810399074069772 0.6495574751396682 0  0.4740615253480797 0.2509287743856873 0  7.052064303830151 0.3684417917792242 0  6.195177069665382 0.1216488332168849 0  5.72300154718324 0.4112068202852788 0  3.879157465495092 0.6111892850691246 0  3.645760045247695 0.5809158475691247 0  6.868257400485771 0.3427840810237202 0  6.612030892260864 0.1521752713064389 0  6.615666885941117 0.3151079644097221 0  4.04296875 0.8633718902669071 0  1.183031453639096 0.8486801864185936 0  6.9140625 0 0  6.859079526500421 0.1398292786950638 0  6.808232443325651 0.7957411753922057 0  6.9140625 1 0  4.544955211100143 0.3675874343205077 0  1.0546875 1 0  6.122060236165557 0.3316791557072867 0  0.5859375 0 0  5.9765625 0 0  5.44921875 0.870984788733638 0  4.51171875 0.870984788733638 0  0.7608354256382215 0.2931261274224557 0  6.386875332239937 0.3156583003094978 0  6.985654756850997 0.6147408423643147 0  6.223797257919172 0.8535621912121121 0  5.936822413218736 0.1338376546337823 0  6.23933008800134 0.4095573603773768 0  0.5414022462152697 0.1305482677949959 0  6.331360438104348 0.1370086318183389 0  0.956404929269873 0.1374266563647954 0  1.2890625 1 0  0.691305981127761 0.6764829884281737 0  3.531251607241209 0.8678916320952239 0  2.59787442813022 
[...]
<PointData  Vectors="f_71627"> 
<DataArray  type="Float64"  Name="f_71627"  NumberOfComponents="3" format="ascii">0.0000000000000000e+00 0.0000000000000000e+00 0.0000000000000000e+00  0.0000000000000000e+00 0.0000000000000000e+00 0.0000000000000000e+00  0.0000000000000000e+00 0.0000000000000000e+00 0.0000000000000000e+00  0.0000000000000000e+00 0.0000000000000000e+00 0.0000000000000000e+00  0.0000000000000000e+00 0.0000000000000000e+00 0.0000000000000000e+00  0.0000000000000000e+00 0.0000000000000000e+00 0.0000000000000000e+00  0.0000000000000000e+00 0.0000000000000000e+00 0.0000000000000000e+00  0.0000000000000000e+00 0.0000000000000000e+00 0.0000000000000000e+00  0.0000000000000000e+00 0.0000000000000000e+00 0.0000000000000000e+00  0.0000000000000000e+00 0.0000000000000000e+00 0.0000000000000000e+00  0.0000000000000000e+00 0.0000000000000000e+00 0.0000000000000000e+00  0.0000000000000000e+00 0.0000000000000000e+00 0.0000000000000000e+00  0.0000000000000000e+00 0.0000000000000000e+00 0.0000000000000000e+00  0.0000000000000000e+00 0.0000000000000000e+00 0.0000000000000000e+00  0.0000000000000000e+00 0.0000000000000000e+00 0.0000000000000000e+00  0.0000000000000000e+00 0.0000000000000000e+00 0.0000000000000000e+00  0.0000000000000000e+00 0.0000000000000000e+00 0.0000000000000000e+00  0.0000000000000000e+00 0.0000000000000000e+00 0.0000000000000000e+00  0.0000000000000000e+00 0.0000000000000000e+00 0.0000000000000000e+00  0.0000000000000000e+00 0.0000000000000000e+00 0.0000000000000000e+00  0.0000000000000000e+00 0.0000000000000000e+00 0.0000000000000000e+00  0.0000000000000000e+00 0.0000000000000000e+00 0.0000000000000000e+00  0.0000000000000000e+00 0.0000000000000000e+00 0.0000000000000000e+00  0.0000000000000000e+00 0.0000000000000000e+00 0.0000000000000000e+00  0.0000000000000000e+00 0.0000000000000000e+00 0.0000000000000000e+00  0.0000000000000000e+00 0.0000000000000000e+00 0.0000000000000000e+00  0.0000000000000000e+00 0.0000000000000000e+00 0.0000000000000000e+00  0.0000000000000000e+00 0.0000000000000000e+00 0.0000000000000000e+00  0.0000000000000000e+00 0.0000000000000000e+00 0.0000000000000000e+00  0.0000000000000000e+00 0.0000000000000000e+00 0.0000000000000000e+00  0.0000000000000000e+00 0.0000000000000000e+00 0.0000000000000000e+00  0.0000000000000000e+00 0.0000000000000000e+00 0.0000000000000000e+00  0.0000000000000000e+00 0.0000000000000000e+00 0.0000000000000000e+00  0.0000000000000000e+00 0.0000000000000000e+00 0.0000000000000000e+00  0.0000000000000000e+00 0.0000000000000000e+00 0.0000000000000000e+00  0.0000000000000000e+00 0.0000000000000000e+00 0.0000000000000000e+00  0.0000000000000000e+00 0.0000000000000000e+00 0.0000000000000000e+00  0.0000000000000000e+00 0.0000000000000000e+00 0.0000000000000000e+00  0.0000000000000000e+00 0.0000000000000000e+00 0.0000000000000000e+00  0.0000000000000000e+00 0.0000000000000000e+00 0.0000000000000000e+00  0.0000000000000000e+00 0.0000000000000000e+00 0.0000000000000000e+00  0.0000000000000000e+00 0.0000000000000000e+00 0.0000000000000000e+00  0.0000000000000000e+00 0.0000000000000000e+00 0.0000000000000000e+00  0.0000000000000000e+00 0.0000000000000000e+00 0.0000000000000000e+00  0.0000000000000000e+00 0.0000000000000000e+00 0.0000000000000000e+00  0.0000000000000000e+00 0.0000000000000000e+00 0.0000000000000000e+00  0.0000000000000000e+00 0.0000000000000000e+00 0.0000000000000000e+00  0.0000000000000000e+00 0.0000000000000000e+00 0.0000000000000000e+00  0.0000000000000000e+00 0.0000000000000000e+00 0.0000000000000000e+00  0.0000000000000000e+00 0.0000000000000000e+00 0.0000000000000000e+00  0.0000000000000000e+00 0.0000000000000000e+00 0.0000000000000000e+00  0.0000000000000000e+00 0.0000000000000000e+00 0.0000000000000000e+00  0.0000000000000000e+00 0.0000000000000000e+00 0.0000000000000000e+00  0.0000000000000000e+00 0.0000000000000000e+00 0.0000000000000000e+00  0.0000000000000000e+00 0.0000000000000000e+00 0.0000000000000000e+00  0.0000000000000000e+00 0.0000000000000000e+00 0.0000000000000000e+00  0.0000000000000000e+00 0.0000000000000000e+00 0.0000000000000000e+00  0.0000000000000000e+00 0.0000000000000000e+00 0.0000000000000000e+00  0.0000000000000000e+00 0.0000000000000000e+00 0.0000000000000000e+00  1.3601683885970615e+00 9.6950976855034854e-01 0.0000000000000000e+00  1.4541605770484147e+00 2.8347137689091156e-01 0.0000000000000000e+00  1.5592252161370277e+00 -9.4740721449396270e-01 0.0000000000000000e+00  1.5778001374712141e+00 -9.4066021774619157e-01 0.0000000000000000e+00  1.2690803462886588e+00 -1.2071148916036060e-01 0.0000000000000000e+00  1.5000001977619812e+00 0.0000000000000000e+00 0.0000000000000000e+00  1.2428129072631764e+00 7.9320115258543680e-03 0.0000000000000000e+00  1.1960763031095538e+00 6.4093222853367882e-01 0.0000000000000000e+00  1.5000001977619812e+00 0.0000000000000000e+00 0.0000000000000000e+00  0.0000000000000000e+00 0.0000000000000000e+00 0.0000000000000000e+00  1.3303184874463183e+00 4.4861006377517482e-01 0.0000000000000000e+00  0.0000000000000000e+00 0.0000000000000000e+00 0.0000000000000000e+00  0.0000000000000000e+00 0.0000000000000000e+00 0.0000000000000000e+00  1.7470543075477911e+00 1.3346759204251633e+00 0.0000000000000000e+00  0.0000000000000000e+00 0.0000000000000000e+00 0.0000000000000000e+00  0.0000000000000000e+00 0.0000000000000000e+00 0.0000000000000000e+00  0.0000000000000000e+00 0.0000000000000000e+00 0.0000000000000000e+00  1.9827169862687648e+00 6.8890259534012344e-01 0.0000000000000000e+00  0.0000000000000000e+00 0.0000000000000000e+00 0.0000000000000000e+00  0.0000000000000000e+00 0.0000000000000000e+00 0.0000000000000000e+00  1.3391997849295991e+00 -1.0013557367654349e+00 0.0000000000000000e+00  0.0000000000000000e+00 0.0000000000000000e+00 0.0000000000000000e+00  0.0000000000000000e+00 0.0000000000000000e+00 0.0000000000000000e+00  0.0000000000000000e+00 0.0000000000000000e+00 0.0000000000000000e+00  0.0000000000000000e+00 0.0000000000000000e+00 0.0000000000000000e+00  0.0000000000000000e+00 0.0000000000000000e+00 0.0000000000000000e+00  0.0000000000000000e+00 0.0000000000000000e+00 0.0000000000000000e+00  0.0000000000000000e+00 0.0000000000000000e+00 0.0000000000000000e+00  1.3670520984158117e+00 -3.9203074206148561e-02 0.0000000000000000e+00  1.1994969240548607e+00 2.8064336556496188e-02 0.0000000000000000e+00  6.3977273141119262e-01 -3.7733633529910648e-01 0.0000000000000000e+00  1.9787507416072276e+00 3.1996122062048349e-01 0.0000000000000000e+00  1.1012669580422907e+00 -5.8736390529047611e-01 0.0000000000000000e+00  2.5866057830360689e-01 -6.2053460055672993e-01 0.0000000000000000e+00  8.7087725980401132e-01 7.4229304377287708e-01 0.0000000000000000e+00  3.1334786763877337e-01 2.5616041342231083e-01 0.0000000000000000e+00  1.4776647468368838e+00 -5.3081846425095648e-02 0.0000000000000000e+00  1.0478038394019085e+00 5.5593973647825888e-02 0.0000000000000000e+00  9.4929291306028107e-01 -1.2596264867312335e-03 0.0000000000000000e+00  1.0435965609201969e+00 1.2567820808928728e-02 0.0000000000000000e+00  9.8909359294523003e-01 9.7711341652319400e-02 0.0000000000000000e+00  1.1250001483214862e+00 0.0000000000000000e+00 0.0000000000000000e+00  1.0153977362880511e+00 -2.4551838243776300e-01 0.0000000000000000e+00  4.2169413351178991e-01 -1.5363890525090720e-01 0.0000000000000000e+00  2.3888123080582249e+00 1.0260185331604725e+00 0.0000000000000000e+00  -7.3766671488404090e-01 -4.2591136929288476e-01 0.0000000000000000e+00  1.1743168206364236e+00 2.0777668041257688e-01 0.0000000000000000e+00  1.8064882056484982e-01 1.9702735526618204e-01 0.0000000000000000e+00  1.0835487441942631e+00 -4.3220178218562161e-01 0.0000000000000000e+00  1.0552562738942164e+00 5.0875952915104916e-01 0.0000000000000000e+00  1.5334774811699063e+00 -2.9012730988465490e-01 0.0000000000000000e+00  1.8060971045615237e+00 4.5777833169486759e-01 0.0000000000000000e+00  1.2172741729639907e+00 -1.3372940961973373e-01 0.0000000000000000e+00  1.3708002734956233e+00 -2.9093741869831524e-01 0.0000000000000000e+00  1.1438464296319051e+00 1.7663233312520912e-02 0.0000000000000000e+00  1.1700519350523071e+00 2.1328256616753487e-03 0.0000000000000000e+00  1.2316204385515426e+00 -9.2684377385088293e-02 0.0000000000000000e+00  0.0000000000000000e+00 0.0000000000000000e+00 0.0000000000000000e+00  1.2573489952416019e+00 -3.2045800129431384e-01 0.0000000000000000e+00  1.1250001483214862e+00 0.0000000000000000e+00 0.0000000000000000e+00  1.2261963870312171e+00 3.3634436141453110e-02 0.0000000000000000e+00  0.0000000000000000e+00 0.0000000000000000e+00 0.0000000000000000e+00  1.2824882640383710e+00 2.5307060179358618e-03 0.0000000000000000e+00  1.0351057015955960e+00 1.9268947264330172e-01 0.0000000000000000e+00  1.8128458659068269e+00 -2.6865995121032138e-01 0.0000000000000000e+00  1.0028823979665076e+00 3.1009400900341622e-01 0.0000000000000000e+00  0.0000000000000000e+00 0.0000000000000000e+00 0.0000000000000000e+00  1.9633306878512089e+00 -7.5997214972972327e-01 0.0000000000000000e+00  1.1250001483214862e+00 0.0000000000000000e+00 0.0000000000000000e+00  8.8979476200333962e-01 -7.5923604560348845e-01 0.0000000000000000e+00  1.1250001483214862e+00 0.0000000000000000e+00 0.0000000000000000e+00  0.0000000000000000e+00 0.0000000000000000e+00 0.0000000000000000e+00  2.2757864009619841e+00 1.6178510208051336e-01 0.0000000000000000e+00  1.3441318800257436e+00 4.6068358977315610e-01 0.0000000000000000e+00  2.2434993455448832e-01 -8.6056447682282722e-01 0.0000000000000000e+00  0.0000000000000000e+00 0.0000000000000000e+00 0.0000000000000000e+00  1.2062579100497370e+00 6.8965262643592595e-02 0.0000000000000000e+00  1.2359063724692594e+00 -2.5893927245799242e-01 0.0000000000000000e+00  1.9127758832896529e+00 5.5517167644773935e-01 0.0000000000000000e+00  4.9472669728584528e-01 -4.3804475577269991e-01 0.0000000000000000e+00  1.3416041299596067e+00 4.9814541483767538e-01 0.0000000000000000e+00  1.3007609945159915e+00 3.6900989537551171e-01 0.0000000000000000e+00  1.3792744876478082e+00 -2.5977511194912369e-02 0.0000000000000000e+00  1.6869077954161504e+00 -7.2061441560941564e-01 0.0000000000000000e+00  1.6077987258812099e+00 -8.2689754583678288e-01 0.0000000000000000e+00  1.4712092844399904e+00 -6.0535077373714319e-01 0.0000000000000000e+00  1.5435778252380783e+00 8.5625933136068338e-02 0.0000000000000000e+00  1.4923152596500786e+00 8.6298508276268648e-01 0.0000000000000000e+00  1.3255685671195399e+00 -8.4348588563464610e-01 0.0000000000000000e+00  9.2639160443016377e-01 2.4854270530320680e-01 0.0000000000000000e+00  0.0000000000000000e+00 0.0000000000000000e+00 0.0000000000000000e+00  9.7389808613540740e-01 5.8085047137301737e-01 0.0000000000000000e+00  0.0000000000000000e+00 0.0000000000000000e+00 0.0000000000000000e+00  0.0000000000000000e+00 0.0000000000000000e+00 0.0000000000000000e+00  0.0000000000000000e+00 0.0000000000000000e+00 0.0000000000000000e+00  0.0000000000000000e+00 0.0000000000000000e+00 0.0000000000000000e+00  0.0000000000000000e+00 0.0000000000000000e+00 0.0000000000000000e+00  0.0000000000000000e+00 0.0000000000000000e+00 0.0000000000000000e+00  0.0000000000000000e+00 0.0000000000000000e+00 0.0000000000000000e+00  0.0000000000000000e+00 0.0000000000000000e+00 0.0000000000000000e+00  6.9241187169925678e-01 1.3944985363509832e-01 0.0000000000000000e+00  0.0000000000000000e+00 0.0000000000000000e+00 0.0000000000000000e+00  0.0000000000000000e+00 0.0000000000000000e+00 0.0000000000000000e+00  0.0000000000000000e+00 0.0000000000000000e+00 0.0000000000000000e+00  0.0000000000000000e+00 0.0000000000000000e+00 0.0000000000000000e+00  0.0000000000000000e+00 0.0000000000000000e+00 0.0000000000000000e+00  0.0000000000000000e+00 0.0000000000000000e+00 0.0000000000000000e+00  0.0000000000000000e+00 0.0000000000000000e+00 0.0000000000000000e+00  0.0000000000000000e+00 0.0000000000000000e+00 0.0000000000000000e+00  0.0000000000000000e+00 0.0000000000000000e+00 0.0000000000000000e+00  0.0000000000000000e+00 0.0000000000000000e+00 0.0000000000000000e+00  0.0000000000000000e+00 0.0000000000000000e+00 0.0000000000000000e+00  0.0000000000000000e+00 0.0000000000000000e+00 0.0000000000000000e+00  0.0000000000000000e+00 0.0000000000000000e+00 0.0000000000000000e+00  0.0000000000000000e+00 0.0000000000000000e+00 0.0000000000000000e+00  0.0000000000000000e+00 0.0000000000000000e+00 0.0000000000000000e+00  0.0000000000000000e+00 0.0000000000000000e+00 0.0000000000000000e+00  0.0000000000000000e+00 0.0000000000000000e+00 0.0000000000000000e+00  0.0000000000000000e+00 0.0000000000000000e+00 0.0000000000000000e+00  1.2000899732024557e+00 9.4126041305529903e-04 0.0000000000000000e+00  7.0673215239224862e-01 5.4501501550224529e-01 0.0000000000000000e+00  1.2551674562271462e+00 -5.3185735604447681e-01 0.0000000000000000e+00  1.0121335596557115e+00 5.7575583671409886e-02 0.0000000000000000e+00  1.6346251708644117e+00 -1.0234427339870578e+00 0.0000000000000000e+00  1.3034303316097759e+00 1.3118062665231121e+00 0.0000000000000000e+00  8.1240008058226543e-01 8.2922417071250398e-01 0.0000000000000000e+00  9.0785338076001354e-01 1.4453230020110360e-02 0.0000000000000000e+00  1.3554196067767272e+00 -1.9014486083230292e-01 0.0000000000000000e+00  1.3950184146738929e+00 -1.2482030233090432e-02 0.0000000000000000e+00  1.1786409969100082e+00 5.1473051671208143e-02 0.0000000000000000e+00  1.2023544558139085e+00 2.7124489603536320e-02 0.0000000000000000e+00  1.2270410506116796e+00 1.2190222202149416e-02 0.0000000000000000e+00  1.8809169120215248e+00 -4.1921726952253319e-01 0.0000000000000000e+00  1.1248297179378826e+00 -9.4619515727459427e-02 0.0000000000000000e+00  1.4742684162349902e+00 -3.4055313098534035e-01 0.0000000000000000e+00  1.4042766878595470e+00 -2.4999221165380978e-02 0.0000000000000000e+00  2.0211373304485698e+00 -1.0172952222176333e-01 0.0000000000000000e+00  1.3874411568892173e+00 4.3305155090598837e-03 0.0000000000000000e+00  1.3795429854834464e+00 8.0352442446300649e-03 0.0000000000000000e+00  1.1471568863824722e+00 -6.4792385483945685e-03 0.0000000000000000e+00  4.3021549459323005e-01 8.1804286306466556e-01 0.0000000000000000e+00  1.5897501115509469e+00 -6.2956413838239625e-03 0.0000000000000000e+00  5.3923749736722404e-01 -5.4443821972500062e-01 0.0000000000000000e+00  1.1646450705526956e+00 5.0514696959586422e-02 0.0000000000000000e+00  1.7234512532951933e+00 4.1435958729779054e-01 0.0000000000000000e+00  1.5324848045841108e+00 9.4648280357758141e-01 0.0000000000000000e+00  8.5242447310267344e-01 7.5741966588719158e-04 0.0000000000000000e+00  8.6896933274670196e-01 2.2415221498316498e-03 0.0000000000000000e+00  9.5883078823623480e-01 1.1827527945589443e-03 0.0000000000000000e+00  8.3186217278251640e-01 -7.5369598899176580e-03 0.0000000000000000e+00  1.5370682773883513e+00 5.0537614063147496e-01 0.0000000000000000e+00  1.4224971127170669e+00 3.9467285926618667e-01 0.0000000000000000e+00  7.8757616285836629e-01 8.0984539279428258e-01 0.0000000000000000e+00  1.0187612432973496e+00 7.5982104251872806e-03 0.0000000000000000e+00  1.0131526604790226e+00 1.3146896882703256e-02 0.0000000000000000e+00  1.1279304070766496e+00 4.0861505706176515e-01 0.0000000000000000e+00  1.3357413493537993e+00 6.9113515642144541e-01 0.0000000000000000e+00  1.7334681597904684e+00 1.0069149519971525e+00 0.0000000000000000e+00  1.3378955194118902e+00 -3.5372750862675140e-01 0.0000000000000000e+00  -2.3336224119716273e-01 6.5356208841387065e-01 0.0000000000000000e+00  9.9772108067867793e-01 2.3770230054847191e-01 0.0000000000000000e+00  1.4303893847986524e+00 -7.2559729876458190e-01 0.0000000000000000e+00  -4.3562733076283899e-01 3.4081800930763151e-01 0.0000000000000000e+00  -2.8302050574287519e-02 6.5400951055045686e-01 0.0000000000000000e+00  1.5976928774793830e+00 1.2178630912453647e-01 0.0000000000000000e+00  9.7698147562516224e-01 -5.4521378918614520e-02 0.0000000000000000e+00  -2.4602951176596025e-01 -2.4128888428139400e-01 0.0000000000000000e+00  1.2267432953052231e+00 2.6341236475287799e-01 0.0000000000000000e+00  6.5625008652086680e-01 0.0000000000000000e+00 0.0000000000000000e+00  8.6380399795815643e-01 -2.8621686739001270e-02 0.0000000000000000e+00  6.8721797681007846e-01 -5.1945422138995356e-01 0.0000000000000000e+00  6.7581326405553099e-01 2.5715147006642663e-02 0.0000000000000000e+00  7.2632478849608306e-01 4.3259263238230913e-02 0.0000000000000000e+00  6.2650725574682808e-01 -4.4603832399028849e-03 0.0000000000000000e+00  1.3219771754722658e+00 -1.1538068694717583e-01 0.0000000000000000e+00  1.2204704769544739e+00 -7.2299615595115696e-01 0.0000000000000000e+00  1.0843051600516795e+00 -1.0117398913920765e+00 0.0000000000000000e+00  1.2491027598020119e+00 2.9765127439211087e-01 0.0000000000000000e+00  1.1668935282283404e+00 -8.0589787085089848e-01 0.0000000000000000e+00  5.2737078062987275e-01 -2.0719017445942414e-01 0.0000000000000000e+00  8.0657451582770334e-01 5.6396868177705797e-02 0.0000000000000000e+00  1.2057280072565517e+00 7.7555878874976836e-01 0.0000000000000000e+00  1.9004642989277512e+00 -1.5677036574459415e+00 0.0000000000000000e+00  5.3707581651273462e-01 -5.4409622534978162e-03 0.0000000000000000e+00  6.9273001279460389e-01 -4.1135521977570186e-02 0.0000000000000000e+00  1.6636102122542573e+00 -3.2712205719922788e-01 0.0000000000000000e+00  1.0261740025664259e+00 -1.0038701808109962e-01 0.0000000000000000e+00  9.1413352869195011e-02 -4.9643593473773567e-01 0.0000000000000000e+00  1.4152979212924466e+00 -2.0710018602500996e-01 0.0000000000000000e+00  -9.7861616617095193e-01 -8.8095025053237830e-01 0.0000000000000000e+00  1.8191364269951795e+00 -3.2263097792355266e-01 0.0000000000000000e+00  1.4584609255943894e+00 -6.8629191117399194e-02 0.0000000000000000e+00  1.2838959783876833e+00 -2.5599058447743139e-01 0.0000000000000000e+00  1.1107843141405003e+00 5.8474438146146868e-01 0.0000000000000000e+00  2.1074143157873584e+00 -1.0064905897564794e-01 0.0000000000000000e+00  1.1282279736184355e+00 -9.5950984631034186e-02 0.0000000000000000e+00  1.4709529812057400e+00 -3.0275710860959737e-01 0.0000000000000000e+00  1.7426327005154556e+00 -7.7058511885420589e-01 0.0000000000000000e+00  1.6430214766578508e+00 -1.0765654792625699e-01 0.0000000000000000e+00  1.0866359378103903e+00 -1.0317212053299587e+00 0.0000000000000000e+00  1.3100682457605539e+00 2.1069990808486153e-01 0.0000000000000000e+00  7.9801525200678136e-01 -3.5440377534326352e-03 0.0000000000000000e+00  8.2619219925756215e-01 8.1249205263560542e-01 0.0000000000000000e+00  1.2812871758137279e+00 -4.9917819770441996e-01 0.0000000000000000e+00  2.0257457272971231e+00 -2.3536445989613097e-01 0.0000000000000000e+00  1.0716466641103911e-01 1.4466922955230829e-01 0.0000000000000000e+00  4.9857026072057348e-01 1.5020491183071619e-01 0.0000000000000000e+00  1.4905915726573020e+00 9.7833325409725932e-02 0.0000000000000000e+00  1.8552312188648838e+00 1.0002097035032722e+00 0.0000000000000000e+00  1.2287559356506481e+00 4.7886070187966556e-01 0.0000000000000000e+00  1.6696419428365827e+00 7.3776482366205043e-01 0.0000000000000000e+00  7.8334925604231864e-01 1.6569375604707620e-01 0.0000000000000000e+00  8.0096408836857358e-01 -1.1558404771721911e-01 0.0000000000000000e+00  8.9298713718444911e-01 -4.2549985366842696e-01 0.0000000000000000e+00  8.4695599173248248e-01 1.9341817432943267e-01 0.0000000000000000e+00  1.2589013951557599e+00 8.5306675380955460e-02 0.0000000000000000e+00  8.5568387388794331e-01 8.5778497187190939e-02 0.0000000000000000e+00  -2.9377216794050410e-02 3.9772314888155597e-01 0.0000000000000000e+00  5.3551548214618083e-01 -3.3458970855388820e-01 0.0000000000000000e+00  4.6657265596365724e-02 -2.2776266543440751e-02 0.0000000000000000e+00  1.2340774145242221e+00 -4.3875952883656955e-01 0.0000000000000000e+00  1.0440577704112313e+00 -3.0065144747571026e-03 0.0000000000000000e+00  1.1380425179647338e+00 8.5163453965179832e-03 0.0000000000000000e+00  1.1113014633721119e+00 2.9003824811767548e-01 0.0000000000