<?xml version="1.0"?>
<VTKFile type="UnstructuredGrid"  version="0.1"  >
<UnstructuredGrid>
<Piece  NumberOfPoints="4269" NumberOfCells="8234">
<Points>
<DataArray  type="Float64"  NumberOfComponents="3"  format="ascii">0 1 0  0 0 0  7.5 0 0  7.5 1 0  1.197537668119028 0.5812868930080463 0  1.2 0.55 0  1.197537668119028 0.5187131069919538 0  1.190211303259031 0.4881966011250105 0  1.178201304837674 0.4592019000520907 0  1.161803398874989 0.4324429495415054 0  1.141421356237309 0.4085786437626905 0  1.117557050458495 0.3881966011250105 0  1.090798099947909 0.3717986951623264 0  1.06180339887499 0.3597886967409693 0  1.031286893008046 0.3524623318809725 0  1 0.35 0  0.9687131069919538 0.3524623318809725 0  0.9381966011250105 0.3597886967409694 0  0.9092019000520906 0.3717986951623264 0  0.8824429495415054 0.3881966011250105 0  0.8585786437626904 0.4085786437626905 0  0.8381966011250105 0.4324429495415054 0  0.8217986951623264 0.4592019000520907 0  0.8097886967409692 0.4881966011250107 0  0.8024623318809725 0.5187131069919539 0  0.8 0.55 0  0.8024623318809725 0.5812868930080463 0  0.8097886967409693 0.6118033988749896 0  0.8217986951623264 0.6407980999479095 0  0.8381966011250105 0.6675570504584947 0  0.8585786437626906 0.6914213562373096 0  0.8824429495415054 0.7118033988749896 0  0.9092019000520907 0.7282013048376736 0  0.9381966011250106 0.7402113032590307 0  0.9687131069919539 0.7475376681190276 0  1 0.75 0  1.031286893008046 0.7475376681190276 0  1.06180339887499 0.7402113032590307 0  1.090798099947909 0.7282013048376736 0  1.117557050458495 0.7118033988749896 0  1.141421356237309 0.6914213562373095 0  1.161803398874989 0.6675570504584947 0  1.178201304837674 0.6407980999479094 0  1.190211303259031 0.6118033988749896 0  3.75 0 0  3.75 1 0  1.875 0 0  1.875 1 0  0.9375 0 0  0.9375 1 0  1.40625 1 0  5.625 1 0  5.625 0 0  2.8125 1 0  2.8125 0 0  4.6875 0 0  4.6875 1 0  6.5625 0 0  6.5625 1 0  5.15625 0.5 0  4.21875 0.5 0  2.34375 0.5 0  3.28125 0.5 0  6.09375 0.5 0  7.5 0.5 0  6.897916666666666 0.5 0  1.842708333333333 0.5 0  0 0.5 0  0.46875 0 0  5.625 0.5302734375 0  7.03125 0 0  6.09375 1 0  2.8125 0.4697265625 0  3.28125 0 0  2.34375 1 0  2.34375 0 0  3.75 0.4697265625 0  4.21875 0 0  4.21875 1 0  4.6875 0.5302734375 0  3.28125 1 0  5.15625 0 0  6.09375 0 0  5.15625 1 0  0.46875 1 0  1.40625 0 0  7.03125 1 0  0.3954638734376499 0.5975780249976004 0  6.495833333333334 0.4072265624999998 0  5.859375 0.25 0  4.905729166666666 0.26513671875 0  4.453125 0.25 0  3.531770833333333 0.73486328125 0  3.968229166666667 0.73486328125 0  2.594270833333333 0.73486328125 0  3.030729166666667 0.73486328125 0  6.328125 0.75 0  7.198958333333334 0.3125000000000002 0  7.198958333333334 0.6874999999999998 0  5.390625 0.25 0  0 0.25 0  2.109375 0.75 0  2.109375 0.25 0  1.51921323205749 0.3418883887525936 0  1.522346610178253 0.6811769608297746 0  5.375456746419271 0.75 0  4.921875 0.76513671875 0  4.437956746419271 0.75 0  3.984375 0.23486328125 0  3.500456746419271 0.25 0  2.578125 0.23486328125 0  3.046875 0.23486328125 0  5.874543253580729 0.75 0  6.642123189445656 0.6909095493086836 0  6.746354166666666 0.2391688368055553 0  0.3197109619185111 0.2850049285972083 0  6.328125 0 0  0.6313375889370429 0.2351325552547357 0  0 0.75 0  6.252283381534729 0.2693808819694041 0  0.234375 1 0  6.948437500000001 0.7543055555555555 0  0.5934018769555939 0.7694151657947577 0  1.858854166666667 0.75 0  1.858854166666667 0.25 0  1.640625 0 0  2.093229166666667 0.5 0  7.5 0.25 0  3.282227579752604 0.75 0  7.5 0.75 0  1.171875 0 0  1.303539853147731 0.2235426933121065 0  5.148177083333333 0.2575683593749998 0  2.351822916666667 0.742431640625 0  1.640625 1 0  4.202380413457425 0.7645435094236485 0  3.047822985053062 0.4701848030090332 0  2.577177014946938 0.4701848030090332 0  4.672792740482199 0.76513671875 0  4.922822985053062 0.5298151969909668 0  5.390593497949761 0.5156244924311331 0  5.610292740482199 0.76513671875 0  3.516602579752604 0.5 0  4.45496853898097 0.4865915990446593 0  5.85753146101903 0.4865915990446593 0  3.749511210123698 0.23486328125 0  3.983397420247396 0.4999999999999999 0  2.343497975411212 0.2346270081980111 0  4.219002024588788 0.2346270081980111 0  0.703125 0 0  2.8125 0.2343755075688669 0  3.046875 0 0  2.578125 0 0  3.515625 0 0  3.984375 0 0  4.453125 1 0  5.390625 1 0  2.109375 0 0  2.109375 1 0  5.625 0.2921402030705575 0  5.390625 0 0  7.265625 0 0  6.796875 0 0  6.328125 1 0  3.046875 1 0  2.578125 1 0  3.984375 1 0  3.515625 1 0  4.453125 0 0  4.921875 0 0  5.859375 0 0  0.703125 1 0  1.171875 1 0  7.265625 1 0  4.921875 1 0  5.859375 1 0  0.234375 0 0  6.796875 1 0  6.980310975276531 0.2285890127127066 0  5.149170481934885 0.772689292163473 0  3.274170481934884 0.2273107078365268 0  6.101334126790364 0.7722468376159667 0  4.678005340872584 0.3000799877067239 0  2.8125 0.6921051326382495 0  3.75 0.6921051326382495 0  0.3515624999999999 0.8134571721668546 0  0.4990405774417521 0.4070099317153735 0  0.1789273931360182 0.625 0  6.31239060814315 0.5298877111157968 0  6.456979773992304 0.1917956348713352 0  6.699870808919271 0.4406293402777773 0  1.337539480965883 0.7944303676599538 0  6.058675797563041 0.2019812164653516 0  0.8203125 0.1643029084422534 0  0.1480856513011711 0.375 0  1.090769294689562 0.1719186776982972 0  7.291088163206459 0.5 0  7.094502414936563 0.5197902199074071 0  0.6046212059042245 0.5730066483871106 0  1.707231580809486 0.6342709161352207 0  1.685961352504593 0.8193269193390785 0  1.374721602852827 0.4600373025865813 0  6.486415510043844 0.5916440776477192 0  1.5234375 0.1508863828685116 0  1.707925830421689 0.3657739208189008 0  0.1674513225045584 0.8278776664019765 0  7.138268756771176 0.1438183366439137 0  7.1484375 0.8616388888888887 0  7.328562530764119 0.819498462930605 0  4.101073710123698 0.3678637200736647 0  1.693878467219965 0.1911955120941053 0  1.577566745468488 0.5110082404081502 0  6.6796875 0.8653871806883484 0  6.498039504430512 0.825568433346395 0  0.7562556668576472 0.8333197949571929 0  4.101045914668806 0.6255195807449272 0  5.030745188395182 0.382829047309028 0  2.476364945868651 0.6095868094762166 0  2.729359843907322 0.8460525663191247 0  2.9296875 0.8740763101564099 0  3.163518307559356 0.6254622797994247 0  3.666859843907322 0.8460525663191247 0  3.8671875 0.8740763101564099 0  4.8046875 0.12592368984359 0  3.14936031382311 0.8606990583876851 0  2.4609375 0.8747622921397776 0  5.023140791101972 0.1392266772452574 0  0 0.125 0  0.1759922923594607 0.1727589856739889 0  4.5703125 0.125 0  7.327755777818006 0.1766156770456191 0  5.5078125 0.125 0  5.719712725029036 0.1460701015352787 0  4.327848962028002 0.3674169956512513 0  5.982681121544351 0.3692637923021713 0  3.398926289876302 0.6245417594909667 0  5.281756792511996 0.3827993367299961 0  2.226822645963271 0.6252438868405666 0  2.234390064317166 0.8676616584526566 0  5.2734375 0.125 0  1.96796875 0.382568359375 0  2.234651037971999 0.3674169956512511 0  1.984114583333333 0.132568359375 0  1.9921875 0.875 0  1.984114583333333 0.632568359375 0  5.748733794462357 0.8678269127183313 0  3.3984375 0.875456329184688 0  1.512925924995415 0.8582958012121853 0  1.359299372802969 0.6275861864990343 0  4.810521420483513 0.4041767793635395 0  0.2996213306116602 0.455339710363317 0  5.999933717403708 0.6388425470751088 0  5.250033449003657 0.6388713364551682 0  3.631676045992918 0.3525406652400928 0  4.3359375 0.8816499670325881 0  4.343577437052484 0.6116511299909198 0  3.375033449003656 0.3611286635448316 0  5.763152151652243 0.6249404690537395 0  4.549347848347757 0.6249404690537396 0  5.5004588702411 0.6403667365776566 0  5.976118394847484 0.8816230218343086 0  5.054722486865804 0.6338007028640954 0  3.164542163493752 0.3520519332736524 0  2.445407482032355 0.3672168403687257 0  4.8046875 0.882568359375 0  4.1015625 0.117431640625 0  2.4609375 0.117431640625 0  2.695556894938151 0.3520510350344335 0  2.929443105061849 0.3520510350344335 0  3.881979231817319 0.3670559016511187 0  3.8671875 0.117431640625 0  4.805389247695744 0.6470047893641744 0  3.399370721942191 0.1184066543556767 0  5.274370721942192 0.881593345644323 0  3.618253274934649 0.1316869186284249 0  2.6953125 0.1171877537844335 0  2.9296875 0.1171877537844335 0  2.21873344389451 0.125 0  4.3359375 0.1171877625080073 0  0.6659898565672709 0.3986593551313873 0  7.363359022954956 0.3481046411219251 0  7.363359022954956 0.6518953588780749 0  5.487719392831826 0.3828237631077121 0  2.695054578344725 0.5809158475691247 0  2.944553877887707 0.5964065668438148 0  0.3515625 0.1201898858097106 0  5.5078125 1 0  4.5703125 1 0  5.031746201297604 0.882568359375 0  3.1640625 0 0  6.2109375 1 0  6.186845385763124 0.6336356480571081 0  4.1015625 1 0  6.810399074069772 0.6495574751396682 0  0.4740615253480797 0.2509287743856873 0  7.052064303830151 0.3684417917792242 0  6.195177069665382 0.1216488332168849 0  5.72300154718324 0.4112068202852788 0  3.879157465495092 0.6111892850691246 0  3.645760045247695 0.5809158475691247 0  6.868257400485771 0.3427840810237202 0  6.612030892260864 0.1521752713064389 0  6.615666885941117 0.3151079644097221 0  4.04296875 0.8633718902669071 0  1.183031453639096 0.8486801864185936 0  6.9140625 0 0  6.859079526500421 0.1398292786950638 0  6.808232443325651 0.7957411753922057 0  6.9140625 1 0  4.544955211100143 0.3675874343205077 0  1.0546875 1 0  6.122060236165557 0.3316791557072867 0  0.5859375 0 0  5.9765625 0 0  5.44921875 0.870984788733638 0  4.51171875 0.870984788733638 0  0.7608354256382215 0.2931261274224557 0  6.386875332239937 0.3156583003094978 0  6.985654756850997 0.6147408423643147 0  6.223797257919172 0.8535621912121121 0  5.936822413218736 0.1338376546337823 0  6.23933008800134 0.4095573603773768 0  0.5414022462152697 0.1305482677949959 0  6.331360438104348 0.1370086318183389 0  0.956404929269873 0.1374266563647954 0  1.2890625 1 0  0.691305981127761 0.6764829884281737 0  3.531251607241209 0.8678916320952239 0  2.59787442813022 
[...]
<PointData  Vectors="f_71627"> 
<DataArray  type="Float64"  Name="f_71627"  NumberOfComponents="3" format="ascii">0.0000000000000000e+00 0.0000000000000000e+00 0.0000000000000000e+00  0.0000000000000000e+00 0.0000000000000000e+00 0.0000000000000000e+00  0.0000000000000000e+00 0.0000000000000000e+00 0.0000000000000000e+00  0.0000000000000000e+00 0.0000000000000000e+00 0.0000000000000000e+00  0.0000000000000000e+00 0.0000000000000000e+00 0.0000000000000000e+00  0.0000000000000000e+00 0.0000000000000000e+00 0.0000000000000000e+00  0.0000000000000000e+00 0.0000000000000000e+00 0.0000000000000000e+00  0.0000000000000000e+00 0.0000000000000000e+00 0.0000000000000000e+00  0.0000000000000000e+00 0.0000000000000000e+00 0.0000000000000000e+00  0.0000000000000000e+00 0.0000000000000000e+00 0.0000000000000000e+00  0.0000000000000000e+00 0.0000000000000000e+00 0.0000000000000000e+00  0.0000000000000000e+00 0.0000000000000000e+00 0.0000000000000000e+00  0.0000000000000000e+00 0.0000000000000000e+00 0.0000000000000000e+00  0.0000000000000000e+00 0.0000000000000000e+00 0.0000000000000000e+00  0.0000000000000000e+00 0.0000000000000000e+00 0.0000000000000000e+00  0.0000000000000000e+00 0.0000000000000000e+00 0.0000000000000000e+00  0.0000000000000000e+00 0.0000000000000000e+00 0.0000000000000000e+00  0.0000000000000000e+00 0.0000000000000000e+00 0.0000000000000000e+00  0.0000000000000000e+00 0.0000000000000000e+00 0.0000000000000000e+00  0.0000000000000000e+00 0.0000000000000000e+00 0.0000000000000000e+00  0.0000000000000000e+00 0.0000000000000000e+00 0.0000000000000000e+00  0.0000000000000000e+00 0.0000000000000000e+00 0.0000000000000000e+00  0.0000000000000000e+00 0.0000000000000000e+00 0.0000000000000000e+00  0.0000000000000000e+00 0.0000000000000000e+00 0.0000000000000000e+00  0.0000000000000000e+00 0.0000000000000000e+00 0.0000000000000000e+00  0.0000000000000000e+00 0.0000000000000000e+00 0.0000000000000000e+00  0.0000000000000000e+00 0.0000000000000000e+00 0.0000000000000000e+00  0.0000000000000000e+00 0.0000000000000000e+00 0.0000000000000000e+00  0.0000000000000000e+00 0.0000000000000000e+00 0.0000000000000000e+00  0.0000000000000000e+00 0.0000000000000000e+00 0.0000000000000000e+00  0.0000000000000000e+00 0.0000000000000000e+00 0.0000000000000000e+00  0.0000000000000000e+00 0.0000000000000000e+00 0.0000000000000000e+00  0.0000000000000000e+00 0.0000000000000000e+00 0.0000000000000000e+00  0.0000000000000000e+00 0.0000000000000000e+00 0.0000000000000000e+00  0.0000000000000000e+00 0.0000000000000000e+00 0.0000000000000000e+00  0.0000000000000000e+00 0.0000000000000000e+00 0.0000000000000000e+00  0.0000000000000000e+00 0.0000000000000000e+00 0.0000000000000000e+00  0.0000000000000000e+00 0.0000000000000000e+00 0.0000000000000000e+00  0.0000000000000000e+00 0.0000000000000000e+00 0.0000000000000000e+00  0.0000000000000000e+00 0.0000000000000000e+00 0.0000000000000000e+00  0.0000000000000000e+00 0.0000000000000000e+00 0.0000000000000000e+00  0.0000000000000000e+00 0.0000000000000000e+00 0.0000000000000000e+00  0.0000000000000000e+00 0.0000000000000000e+00 0.0000000000000000e+00  0.0000000000000000e+00 0.0000000000000000e+00 0.0000000000000000e+00  0.0000000000000000e+00 0.0000000000000000e+00 0.0000000000000000e+00  0.0000000000000000e+00 0.0000000000000000e+00 0.0000000000000000e+00  0.0000000000000000e+00 0.0000000000000000e+00 0.0000000000000000e+00  0.0000000000000000e+00 0.0000000000000000e+00 0.0000000000000000e+00  0.0000000000000000e+00 0.0000000000000000e+00 0.0000000000000000e+00  0.0000000000000000e+00 0.0000000000000000e+00 0.0000000000000000e+00  0.0000000000000000e+00 0.0000000000000000e+00 0.0000000000000000e+00  0.0000000000000000e+00 0.0000000000000000e+00 0.0000000000000000e+00  0.0000000000000000e+00 0.0000000000000000e+00 0.0000000000000000e+00  0.0000000000000000e+00 0.0000000000000000e+00 0.0000000000000000e+00  0.0000000000000000e+00 0.0000000000000000e+00 0.0000000000000000e+00  0.0000000000000000e+00 0.0000000000000000e+00 0.0000000000000000e+00  0.0000000000000000e+00 0.0000000000000000e+00 0.0000000000000000e+00  0.0000000000000000e+00 0.0000000000000000e+00 0.0000000000000000e+00  0.0000000000000000e+00 0.0000000000000000e+00 0.0000000000000000e+00  1.0901142491226519e+00 -1.2358335889596339e-03 0.0000000000000000e+00  1.0911751410168251e+00 1.8516350870000493e-04 0.0000000000000000e+00  1.0998172692310406e+00 -6.0812954246258953e-02 0.0000000000000000e+00  1.0890040855902292e+00 -2.9623319558176706e-03 0.0000000000000000e+00  1.0822197200366825e+00 9.9281522757885699e-05 0.0000000000000000e+00  1.5000002013127149e+00 0.0000000000000000e+00 0.0000000000000000e+00  1.1739347967772955e+00 -2.5883308633520056e-03 0.0000000000000000e+00  8.5750174459489592e-01 1.0341152019118018e+00 0.0000000000000000e+00  1.5000002013127149e+00 0.0000000000000000e+00 0.0000000000000000e+00  0.0000000000000000e+00 0.0000000000000000e+00 0.0000000000000000e+00  1.0893952767961010e+00 -1.9704530881277070e-03 0.0000000000000000e+00  0.0000000000000000e+00 0.0000000000000000e+00 0.0000000000000000e+00  0.0000000000000000e+00 0.0000000000000000e+00 0.0000000000000000e+00  1.0906309138620922e+00 -1.0898071273876375e-02 0.0000000000000000e+00  0.0000000000000000e+00 0.0000000000000000e+00 0.0000000000000000e+00  0.0000000000000000e+00 0.0000000000000000e+00 0.0000000000000000e+00  0.0000000000000000e+00 0.0000000000000000e+00 0.0000000000000000e+00  1.0868684956405803e+00 9.8412777626250870e-04 0.0000000000000000e+00  0.0000000000000000e+00 0.0000000000000000e+00 0.0000000000000000e+00  0.0000000000000000e+00 0.0000000000000000e+00 0.0000000000000000e+00  1.0923278790123871e+00 2.4941264368412913e-04 0.0000000000000000e+00  0.0000000000000000e+00 0.0000000000000000e+00 0.0000000000000000e+00  0.0000000000000000e+00 0.0000000000000000e+00 0.0000000000000000e+00  0.0000000000000000e+00 0.0000000000000000e+00 0.0000000000000000e+00  0.0000000000000000e+00 0.0000000000000000e+00 0.0000000000000000e+00  0.0000000000000000e+00 0.0000000000000000e+00 0.0000000000000000e+00  0.0000000000000000e+00 0.0000000000000000e+00 0.0000000000000000e+00  0.0000000000000000e+00 0.0000000000000000e+00 0.0000000000000000e+00  1.3700810123337273e+00 -5.5241275581909683e-04 0.0000000000000000e+00  1.1216230181697247e+00 -3.4987941049245872e-03 0.0000000000000000e+00  1.0957090429349883e+00 -1.4396955831142437e-03 0.0000000000000000e+00  1.0781271125750380e+00 -1.0061062137449121e-03 0.0000000000000000e+00  1.0767257629351348e+00 5.7793696774876930e-03 0.0000000000000000e+00  1.0870427887748175e+00 -2.7386559730560871e-03 0.0000000000000000e+00  1.0915239499767981e+00 1.1840839128083461e-03 0.0000000000000000e+00  1.1055234210265448e+00 -6.7847212177394138e-03 0.0000000000000000e+00  1.0947265218690918e+00 -5.0470073772168993e-03 0.0000000000000000e+00  1.0823179553131375e+00 -6.4161079331522290e-04 0.0000000000000000e+00  7.5976982575132190e-01 9.2965479208524330e-03 0.0000000000000000e+00  9.4065451250357324e-01 1.5735393642631039e-02 0.0000000000000000e+00  1.0802110066639361e+00 1.7279964491456932e-03 0.0000000000000000e+00  1.1250001509845362e+00 0.0000000000000000e+00 0.0000000000000000e+00  1.6525485342248396e+00 4.4335080848254743e-02 0.0000000000000000e+00  1.1826451385064662e+00 -1.0245977651565165e-01 0.0000000000000000e+00  1.7366770613314353e+00 2.8166796337024502e-01 0.0000000000000000e+00  9.5884185937887792e-02 -4.5635248586396343e-01 0.0000000000000000e+00  1.0893161401451292e+00 -7.2666997411903304e-04 0.0000000000000000e+00  1.0949456208142536e+00 4.9127943339183581e-03 0.0000000000000000e+00  1.0951075524263849e+00 3.1791157512883897e-03 0.0000000000000000e+00  1.0851400877573212e+00 -2.6384500168665365e-03 0.0000000000000000e+00  1.0869287077339067e+00 -3.9867115897198289e-03 0.0000000000000000e+00  1.0682673647940706e+00 -2.2418791373165530e-02 0.0000000000000000e+00  1.0867290853815577e+00 -2.5223080463700441e-03 0.0000000000000000e+00  1.0916735926242755e+00 -1.6154158176331212e-03 0.0000000000000000e+00  1.0762166611006165e+00 2.9509525772804155e-03 0.0000000000000000e+00  1.1020409472247559e+00 -6.4966925929855731e-03 0.0000000000000000e+00  1.2221304291333850e+00 -6.6857826575507831e-02 0.0000000000000000e+00  0.0000000000000000e+00 0.0000000000000000e+00 0.0000000000000000e+00  1.2117841184146059e+00 -2.9100796419084313e-01 0.0000000000000000e+00  1.1250001509845362e+00 0.0000000000000000e+00 0.0000000000000000e+00  1.1054107059387572e+00 2.2365860718862513e-03 0.0000000000000000e+00  0.0000000000000000e+00 0.0000000000000000e+00 0.0000000000000000e+00  1.2554613773551939e+00 -2.8971524692672046e-03 0.0000000000000000e+00  1.0789066584329827e+00 2.3117607295077991e-01 0.0000000000000000e+00  1.6517154531330758e+00 -1.1123324326620870e-01 0.0000000000000000e+00  1.6264693350693933e+00 4.9188989479876405e-01 0.0000000000000000e+00  0.0000000000000000e+00 0.0000000000000000e+00 0.0000000000000000e+00  1.0049502434076574e+00 8.0930794511990783e-02 0.0000000000000000e+00  1.1250001509845362e+00 0.0000000000000000e+00 0.0000000000000000e+00  1.0858333906667383e+00 -3.1022968977749751e-03 0.0000000000000000e+00  1.1250001509845362e+00 0.0000000000000000e+00 0.0000000000000000e+00  0.0000000000000000e+00 0.0000000000000000e+00 0.0000000000000000e+00  2.3264741122033765e+00 -1.0885672915409852e-01 0.0000000000000000e+00  1.0871630194633350e+00 5.4889109204363743e-03 0.0000000000000000e+00  1.1835008215448650e+00 4.1744251583277547e-02 0.0000000000000000e+00  0.0000000000000000e+00 0.0000000000000000e+00 0.0000000000000000e+00  1.0916901224661475e+00 2.1954273206936810e-03 0.0000000000000000e+00  1.0903148844277257e+00 -5.3145560321733783e-03 0.0000000000000000e+00  1.0946882077927798e+00 -2.5171864111654386e-02 0.0000000000000000e+00  1.0944955328116446e+00 4.7210368650285319e-03 0.0000000000000000e+00  1.0860657578185895e+00 -1.3125011984573382e-03 0.0000000000000000e+00  1.0889513490889213e+00 -8.5316835787580935e-04 0.0000000000000000e+00  1.0826685235458833e+00 3.9952720409435092e-03 0.0000000000000000e+00  1.0936981053182548e+00 4.9764397500551695e-04 0.0000000000000000e+00  1.0882231485308531e+00 2.2362120774825920e-03 0.0000000000000000e+00  1.0886810222620391e+00 -3.0759138442880852e-03 0.0000000000000000e+00  1.0872285808970847e+00 -4.2576961692702628e-03 0.0000000000000000e+00  1.0918093283905421e+00 1.1624585537924105e-03 0.0000000000000000e+00  1.0622269044025030e+00 -6.9431335447641448e-02 0.0000000000000000e+00  1.0763070060736750e+00 6.3895538322873886e-04 0.0000000000000000e+00  0.0000000000000000e+00 0.0000000000000000e+00 0.0000000000000000e+00  1.0800524000592224e+00 -7.9906624966225130e-03 0.0000000000000000e+00  0.0000000000000000e+00 0.0000000000000000e+00 0.0000000000000000e+00  0.0000000000000000e+00 0.0000000000000000e+00 0.0000000000000000e+00  0.0000000000000000e+00 0.0000000000000000e+00 0.0000000000000000e+00  0.0000000000000000e+00 0.0000000000000000e+00 0.0000000000000000e+00  0.0000000000000000e+00 0.0000000000000000e+00 0.0000000000000000e+00  0.0000000000000000e+00 0.0000000000000000e+00 0.0000000000000000e+00  0.0000000000000000e+00 0.0000000000000000e+00 0.0000000000000000e+00  0.0000000000000000e+00 0.0000000000000000e+00 0.0000000000000000e+00  1.0756196872448365e+00 -4.8104722537922560e-03 0.0000000000000000e+00  0.0000000000000000e+00 0.0000000000000000e+00 0.0000000000000000e+00  0.0000000000000000e+00 0.0000000000000000e+00 0.0000000000000000e+00  0.0000000000000000e+00 0.0000000000000000e+00 0.0000000000000000e+00  0.0000000000000000e+00 0.0000000000000000e+00 0.0000000000000000e+00  0.0000000000000000e+00 0.0000000000000000e+00 0.0000000000000000e+00  0.0000000000000000e+00 0.0000000000000000e+00 0.0000000000000000e+00  0.0000000000000000e+00 0.0000000000000000e+00 0.0000000000000000e+00  0.0000000000000000e+00 0.0000000000000000e+00 0.0000000000000000e+00  0.0000000000000000e+00 0.0000000000000000e+00 0.0000000000000000e+00  0.0000000000000000e+00 0.0000000000000000e+00 0.0000000000000000e+00  0.0000000000000000e+00 0.0000000000000000e+00 0.0000000000000000e+00  0.0000000000000000e+00 0.0000000000000000e+00 0.0000000000000000e+00  0.0000000000000000e+00 0.0000000000000000e+00 0.0000000000000000e+00  0.0000000000000000e+00 0.0000000000000000e+00 0.0000000000000000e+00  0.0000000000000000e+00 0.0000000000000000e+00 0.0000000000000000e+00  0.0000000000000000e+00 0.0000000000000000e+00 0.0000000000000000e+00  0.0000000000000000e+00 0.0000000000000000e+00 0.0000000000000000e+00  0.0000000000000000e+00 0.0000000000000000e+00 0.0000000000000000e+00  1.1439061605964740e+00 -3.5876007799156701e-03 0.0000000000000000e+00  1.0838620083093451e+00 4.0133935735635565e-03 0.0000000000000000e+00  1.0876928886988206e+00 -1.5892969750558197e-03 0.0000000000000000e+00  1.0889699550521430e+00 -7.7508649825606575e-03 0.0000000000000000e+00  1.0781735083491770e+00 3.8620793365945851e-03 0.0000000000000000e+00  1.0967225396220759e+00 -7.2894623785976246e-03 0.0000000000000000e+00  1.0906793040874345e+00 -1.8273550610443307e-03 0.0000000000000000e+00  9.2357806936205211e-01 3.7550988180765577e-02 0.0000000000000000e+00  1.3403007677812429e+00 -1.4326098985257937e-01 0.0000000000000000e+00  1.3954594677134791e+00 2.2938858223162544e-03 0.0000000000000000e+00  1.0838424532049293e+00 -6.3281544479042737e-04 0.0000000000000000e+00  1.1045062322920531e+00 -3.3709170147018844e-04 0.0000000000000000e+00  1.1556677836595095e+00 -5.9963339131456437e-03 0.0000000000000000e+00  2.1499263066779646e+00 -2.3691798512485734e-01 0.0000000000000000e+00  1.0913065608876407e+00 -4.9482959700696307e-03 0.0000000000000000e+00  1.3998860379042297e+00 -3.3891666572762735e-01 0.0000000000000000e+00  1.4034682912879717e+00 -1.4895467634304108e-02 0.0000000000000000e+00  1.9760479363188839e+00 -2.0102083079866345e-01 0.0000000000000000e+00  1.3988978182374228e+00 -2.9901862719464299e-03 0.0000000000000000e+00  1.3525516830858122e+00 -6.1833736683597907e-04 0.0000000000000000e+00  1.1536854823041889e+00 5.3104264131942337e-02 0.0000000000000000e+00  -5.3223054562729799e-01 -1.0948524810466566e-01 0.0000000000000000e+00  1.5892712832826608e+00 -3.7471734696524944e-01 0.0000000000000000e+00  -4.9108705242925643e-01 -6.8362686223090385e-01 0.0000000000000000e+00  1.0935665782147286e+00 -2.4002435391846763e-03 0.0000000000000000e+00  2.1183718665931157e+00 2.9674352483407179e-01 0.0000000000000000e+00  1.9588712623614863e+00 1.0970927406399615e+00 0.0000000000000000e+00  8.5679173408761367e-01 1.0405180110533685e-02 0.0000000000000000e+00  9.3911175266434699e-01 -3.6646704481836895e-03 0.0000000000000000e+00  1.0242798146335010e+00 5.5341181904524641e-04 0.0000000000000000e+00  7.3140191415746059e-01 -1.5261195643160348e-02 0.0000000000000000e+00  1.0868132494627258e+00 8.6681283194916657e-04 0.0000000000000000e+00  1.9372974635147897e+00 5.7948195218081411e-01 0.0000000000000000e+00  -3.9780286786567243e-01 -6.8138912359284346e-03 0.0000000000000000e+00  1.1147943278560934e+00 1.5986952819078977e-02 0.0000000000000000e+00  1.0224791620822986e+00 -2.8917424060711985e-03 0.0000000000000000e+00  1.2120462501778992e+00 4.3997143378983761e-01 0.0000000000000000e+00  1.0951540850018444e+00 -1.5082151296869328e-04 0.0000000000000000e+00  1.0872380901094649e+00 1.9486085960271874e-03 0.0000000000000000e+00  1.1193612224712799e+00 -2.5169010268282315e-02 0.0000000000000000e+00  1.0874672293694059e+00 -7.1948185049577470e-03 0.0000000000000000e+00  1.0746258169516685e+00 -3.4239568190278700e-03 0.0000000000000000e+00  1.0927294802943830e+00 -4.2192896157545474e-03 0.0000000000000000e+00  1.0553880970470064e+00 5.0692702009609642e-06 0.0000000000000000e+00  1.0775390346944356e+00 -1.4021500605093334e-03 0.0000000000000000e+00  1.0764463520063319e+00 2.1661506746096511e-03 0.0000000000000000e+00  1.0864573742461798e+00 -3.9705857150410320e-03 0.0000000000000000e+00  1.0556315363406650e+00 2.2004483403690909e-02 0.0000000000000000e+00  1.0842764025741147e+00 6.6462288661121747e-03 0.0000000000000000e+00  6.5625008807431273e-01 0.0000000000000000e+00 0.0000000000000000e+00  8.6090083198748579e-01 -2.0379394690997751e-02 0.0000000000000000e+00  1.0719756070400361e+00 -3.1731726882595593e-03 0.0000000000000000e+00  4.0978828940576717e-01 2.4240292149747777e-02 0.0000000000000000e+00  1.0811028280076085e+00 1.4771273068992794e-03 0.0000000000000000e+00  1.0722046287350349e+00 -3.6200600088837345e-03 0.0000000000000000e+00  1.0855788266153648e+00 1.4303416908767795e-03 0.0000000000000000e+00  1.0740455943458209e+00 -3.3279615541870356e-03 0.0000000000000000e+00  1.0939435568860449e+00 -2.4555734732777112e-03 0.0000000000000000e+00  1.0884967707235242e+00 -1.4239582147662009e-04 0.0000000000000000e+00  1.2355112890322202e+00 -1.1899332806033076e-01 0.0000000000000000e+00  1.0292298186336883e+00 3.0413112247012636e-01 0.0000000000000000e+00  1.0805709343529744e+00 -6.6580815453041358e-03 0.0000000000000000e+00  1.2843770436572683e+00 3.8874414125250417e-01 0.0000000000000000e+00  1.1011589621330453e+00 -5.3083979689016320e-02 0.0000000000000000e+00  1.0251152013813538e+00 -7.2638006398076577e-02 0.0000000000000000e+00  9.0142169785990867e-01 -5.6115209631357785e-02 0.0000000000000000e+00  9.1353307728601563e-01 2.1585958925416204e-01 0.0000000000000000e+00  1.1013581673169690e+00 1.4858768501754931e-03 0.0000000000000000e+00  1.0797038731671815e+00 -2.2311242767571165e-03 0.0000000000000000e+00  1.7887556402831963e+00 -3.8976963259939124e-01 0.0000000000000000e+00  -3.7288374151728831e-01 -4.4889062981096295e-01 0.0000000000000000e+00  1.0833867864002782e+00 -1.6542902918752472e-03 0.0000000000000000e+00  1.4547088128286674e+00 -4.0886221457194893e-02 0.0000000000000000e+00  1.0793212956491358e+00 -1.3065439693363858e-03 0.0000000000000000e+00  1.0831769672550760e+00 -3.5268765456715596e-03 0.0000000000000000e+00  1.0898679234355952e+00 1.1236888331796514e-03 0.0000000000000000e+00  1.0867989715533342e+00 1.7365528400358247e-03 0.0000000000000000e+00  1.0965895814099920e+00 4.6367264396622229e-04 0.0000000000000000e+00  1.0910487109756350e+00 -2.0115522398519445e-03 0.0000000000000000e+00  1.0774846436491814e+00 -1.4644832519400133e-03 0.0000000000000000e+00  1.0889332135461371e+00 2.4793957070349784e-03 0.0000000000000000e+00  1.0885299496588989e+00 -4.1191760202778094e-03 0.0000000000000000e+00  1.1206405698418020e+00 -8.2734571463895777e-04 0.0000000000000000e+00  1.0880990947462075e+00 2.4530022384735266e-03 0.0000000000000000e+00  1.0894725345687883e+00 -3.2287007197501524e-03 0.0000000000000000e+00  1.0845304231387962e+00 -4.3165180322400326e-02 0.0000000000000000e+00  1.0734955705815301e+00 5.7935416902040269e-03 0.0000000000000000e+00  1.0826669867818592e+00 1.1355201171913420e-03 0.0000000000000000e+00  9.9987312216208279e-01 -2.8085217795944854e-02 0.0000000000000000e+00  1.0849213060172103e+00 -1.6719836198056077e-02 0.0000000000000000e+00  1.0872089833851257e+00 -6.6806869398421181e-03 0.0000000000000000e+00  1.0875791645407036e+00 4.3966346216108709e-04 0.0000000000000000e+00  1.0784520425207338e+00 -2.9655251839598531e-03 0.0000000000000000e+00  1.0883965717225175e+00 1.3727681799535949e-03 0.0000000000000000e+00  1.0700988012820236e+00 -2.5155599859975346e-03 0.0000000000000000e+00  1.1041812703837059e+00 1.3965842621810026e-03 0.0000000000000000e+00  1.0665761410548378e+00 -4.7785908293919727e-03 0.0000000000000000e+00  1.0440744717942496e+00 -4.0685246806185377e-03 0.0000000000000000e+00  1.0552854615944742e+00 -2.0069007021756209e-03 0.0000000000000000e+00  9.5585438465931583e-01 -1.5244960469423310e-01 0.0000000000000000e+00  1.0849943920745411e+00 4.5993655915096306e-03 0.0000000000000000e+00  1.2018450902518381e+00 -3.8414652585287989e-01 0.0000000000000000e+00  9.8206592905694390e-01 -7.3173466807742909e-03 0.0000000000000000e+00  1.0689847498375959e+00 1.6376908023346740e-02 0.0000000000000000e+00  1.0900810529674239e+00 -5.253287373759