<?xml version="1.0"?>
<VTKFile type="UnstructuredGrid"  version="0.1"  >
<UnstructuredGrid>
<Piece  NumberOfPoints="4269" NumberOfCells="8234">
<Points>
<DataArray  type="Float64"  NumberOfComponents="3"  format="ascii">0 1 0  0 0 0  7.5 0 0  7.5 1 0  1.197537668119028 0.5812868930080463 0  1.2 0.55 0  1.197537668119028 0.5187131069919538 0  1.190211303259031 0.4881966011250105 0  1.178201304837674 0.4592019000520907 0  1.161803398874989 0.4324429495415054 0  1.141421356237309 0.4085786437626905 0  1.117557050458495 0.3881966011250105 0  1.090798099947909 0.3717986951623264 0  1.06180339887499 0.3597886967409693 0  1.031286893008046 0.3524623318809725 0  1 0.35 0  0.9687131069919538 0.3524623318809725 0  0.9381966011250105 0.3597886967409694 0  0.9092019000520906 0.3717986951623264 0  0.8824429495415054 0.3881966011250105 0  0.8585786437626904 0.4085786437626905 0  0.8381966011250105 0.4324429495415054 0  0.8217986951623264 0.4592019000520907 0  0.8097886967409692 0.4881966011250107 0  0.8024623318809725 0.5187131069919539 0  0.8 0.55 0  0.8024623318809725 0.5812868930080463 0  0.8097886967409693 0.6118033988749896 0  0.8217986951623264 0.6407980999479095 0  0.8381966011250105 0.6675570504584947 0  0.8585786437626906 0.6914213562373096 0  0.8824429495415054 0.7118033988749896 0  0.9092019000520907 0.7282013048376736 0  0.9381966011250106 0.7402113032590307 0  0.9687131069919539 0.7475376681190276 0  1 0.75 0  1.031286893008046 0.7475376681190276 0  1.06180339887499 0.7402113032590307 0  1.090798099947909 0.7282013048376736 0  1.117557050458495 0.7118033988749896 0  1.141421356237309 0.6914213562373095 0  1.161803398874989 0.6675570504584947 0  1.178201304837674 0.6407980999479094 0  1.190211303259031 0.6118033988749896 0  3.75 0 0  3.75 1 0  1.875 0 0  1.875 1 0  0.9375 0 0  0.9375 1 0  1.40625 1 0  5.625 1 0  5.625 0 0  2.8125 1 0  2.8125 0 0  4.6875 0 0  4.6875 1 0  6.5625 0 0  6.5625 1 0  5.15625 0.5 0  4.21875 0.5 0  2.34375 0.5 0  3.28125 0.5 0  6.09375 0.5 0  7.5 0.5 0  6.897916666666666 0.5 0  1.842708333333333 0.5 0  0 0.5 0  0.46875 0 0  5.625 0.5302734375 0  7.03125 0 0  6.09375 1 0  2.8125 0.4697265625 0  3.28125 0 0  2.34375 1 0  2.34375 0 0  3.75 0.4697265625 0  4.21875 0 0  4.21875 1 0  4.6875 0.5302734375 0  3.28125 1 0  5.15625 0 0  6.09375 0 0  5.15625 1 0  0.46875 1 0  1.40625 0 0  7.03125 1 0  0.3954638734376499 0.5975780249976004 0  6.495833333333334 0.4072265624999998 0  5.859375 0.25 0  4.905729166666666 0.26513671875 0  4.453125 0.25 0  3.531770833333333 0.73486328125 0  3.968229166666667 0.73486328125 0  2.594270833333333 0.73486328125 0  3.030729166666667 0.73486328125 0  6.328125 0.75 0  7.198958333333334 0.3125000000000002 0  7.198958333333334 0.6874999999999998 0  5.390625 0.25 0  0 0.25 0  2.109375 0.75 0  2.109375 0.25 0  1.51921323205749 0.3418883887525936 0  1.522346610178253 0.6811769608297746 0  5.375456746419271 0.75 0  4.921875 0.76513671875 0  4.437956746419271 0.75 0  3.984375 0.23486328125 0  3.500456746419271 0.25 0  2.578125 0.23486328125 0  3.046875 0.23486328125 0  5.874543253580729 0.75 0  6.642123189445656 0.6909095493086836 0  6.746354166666666 0.2391688368055553 0  0.3197109619185111 0.2850049285972083 0  6.328125 0 0  0.6313375889370429 0.2351325552547357 0  0 0.75 0  6.252283381534729 0.2693808819694041 0  0.234375 1 0  6.948437500000001 0.7543055555555555 0  0.5934018769555939 0.7694151657947577 0  1.858854166666667 0.75 0  1.858854166666667 0.25 0  1.640625 0 0  2.093229166666667 0.5 0  7.5 0.25 0  3.282227579752604 0.75 0  7.5 0.75 0  1.171875 0 0  1.303539853147731 0.2235426933121065 0  5.148177083333333 0.2575683593749998 0  2.351822916666667 0.742431640625 0  1.640625 1 0  4.202380413457425 0.7645435094236485 0  3.047822985053062 0.4701848030090332 0  2.577177014946938 0.4701848030090332 0  4.672792740482199 0.76513671875 0  4.922822985053062 0.5298151969909668 0  5.390593497949761 0.5156244924311331 0  5.610292740482199 0.76513671875 0  3.516602579752604 0.5 0  4.45496853898097 0.4865915990446593 0  5.85753146101903 0.4865915990446593 0  3.749511210123698 0.23486328125 0  3.983397420247396 0.4999999999999999 0  2.343497975411212 0.2346270081980111 0  4.219002024588788 0.2346270081980111 0  0.703125 0 0  2.8125 0.2343755075688669 0  3.046875 0 0  2.578125 0 0  3.515625 0 0  3.984375 0 0  4.453125 1 0  5.390625 1 0  2.109375 0 0  2.109375 1 0  5.625 0.2921402030705575 0  5.390625 0 0  7.265625 0 0  6.796875 0 0  6.328125 1 0  3.046875 1 0  2.578125 1 0  3.984375 1 0  3.515625 1 0  4.453125 0 0  4.921875 0 0  5.859375 0 0  0.703125 1 0  1.171875 1 0  7.265625 1 0  4.921875 1 0  5.859375 1 0  0.234375 0 0  6.796875 1 0  6.980310975276531 0.2285890127127066 0  5.149170481934885 0.772689292163473 0  3.274170481934884 0.2273107078365268 0  6.101334126790364 0.7722468376159667 0  4.678005340872584 0.3000799877067239 0  2.8125 0.6921051326382495 0  3.75 0.6921051326382495 0  0.3515624999999999 0.8134571721668546 0  0.4990405774417521 0.4070099317153735 0  0.1789273931360182 0.625 0  6.31239060814315 0.5298877111157968 0  6.456979773992304 0.1917956348713352 0  6.699870808919271 0.4406293402777773 0  1.337539480965883 0.7944303676599538 0  6.058675797563041 0.2019812164653516 0  0.8203125 0.1643029084422534 0  0.1480856513011711 0.375 0  1.090769294689562 0.1719186776982972 0  7.291088163206459 0.5 0  7.094502414936563 0.5197902199074071 0  0.6046212059042245 0.5730066483871106 0  1.707231580809486 0.6342709161352207 0  1.685961352504593 0.8193269193390785 0  1.374721602852827 0.4600373025865813 0  6.486415510043844 0.5916440776477192 0  1.5234375 0.1508863828685116 0  1.707925830421689 0.3657739208189008 0  0.1674513225045584 0.8278776664019765 0  7.138268756771176 0.1438183366439137 0  7.1484375 0.8616388888888887 0  7.328562530764119 0.819498462930605 0  4.101073710123698 0.3678637200736647 0  1.693878467219965 0.1911955120941053 0  1.577566745468488 0.5110082404081502 0  6.6796875 0.8653871806883484 0  6.498039504430512 0.825568433346395 0  0.7562556668576472 0.8333197949571929 0  4.101045914668806 0.6255195807449272 0  5.030745188395182 0.382829047309028 0  2.476364945868651 0.6095868094762166 0  2.729359843907322 0.8460525663191247 0  2.9296875 0.8740763101564099 0  3.163518307559356 0.6254622797994247 0  3.666859843907322 0.8460525663191247 0  3.8671875 0.8740763101564099 0  4.8046875 0.12592368984359 0  3.14936031382311 0.8606990583876851 0  2.4609375 0.8747622921397776 0  5.023140791101972 0.1392266772452574 0  0 0.125 0  0.1759922923594607 0.1727589856739889 0  4.5703125 0.125 0  7.327755777818006 0.1766156770456191 0  5.5078125 0.125 0  5.719712725029036 0.1460701015352787 0  4.327848962028002 0.3674169956512513 0  5.982681121544351 0.3692637923021713 0  3.398926289876302 0.6245417594909667 0  5.281756792511996 0.3827993367299961 0  2.226822645963271 0.6252438868405666 0  2.234390064317166 0.8676616584526566 0  5.2734375 0.125 0  1.96796875 0.382568359375 0  2.234651037971999 0.3674169956512511 0  1.984114583333333 0.132568359375 0  1.9921875 0.875 0  1.984114583333333 0.632568359375 0  5.748733794462357 0.8678269127183313 0  3.3984375 0.875456329184688 0  1.512925924995415 0.8582958012121853 0  1.359299372802969 0.6275861864990343 0  4.810521420483513 0.4041767793635395 0  0.2996213306116602 0.455339710363317 0  5.999933717403708 0.6388425470751088 0  5.250033449003657 0.6388713364551682 0  3.631676045992918 0.3525406652400928 0  4.3359375 0.8816499670325881 0  4.343577437052484 0.6116511299909198 0  3.375033449003656 0.3611286635448316 0  5.763152151652243 0.6249404690537395 0  4.549347848347757 0.6249404690537396 0  5.5004588702411 0.6403667365776566 0  5.976118394847484 0.8816230218343086 0  5.054722486865804 0.6338007028640954 0  3.164542163493752 0.3520519332736524 0  2.445407482032355 0.3672168403687257 0  4.8046875 0.882568359375 0  4.1015625 0.117431640625 0  2.4609375 0.117431640625 0  2.695556894938151 0.3520510350344335 0  2.929443105061849 0.3520510350344335 0  3.881979231817319 0.3670559016511187 0  3.8671875 0.117431640625 0  4.805389247695744 0.6470047893641744 0  3.399370721942191 0.1184066543556767 0  5.274370721942192 0.881593345644323 0  3.618253274934649 0.1316869186284249 0  2.6953125 0.1171877537844335 0  2.9296875 0.1171877537844335 0  2.21873344389451 0.125 0  4.3359375 0.1171877625080073 0  0.6659898565672709 0.3986593551313873 0  7.363359022954956 0.3481046411219251 0  7.363359022954956 0.6518953588780749 0  5.487719392831826 0.3828237631077121 0  2.695054578344725 0.5809158475691247 0  2.944553877887707 0.5964065668438148 0  0.3515625 0.1201898858097106 0  5.5078125 1 0  4.5703125 1 0  5.031746201297604 0.882568359375 0  3.1640625 0 0  6.2109375 1 0  6.186845385763124 0.6336356480571081 0  4.1015625 1 0  6.810399074069772 0.6495574751396682 0  0.4740615253480797 0.2509287743856873 0  7.052064303830151 0.3684417917792242 0  6.195177069665382 0.1216488332168849 0  5.72300154718324 0.4112068202852788 0  3.879157465495092 0.6111892850691246 0  3.645760045247695 0.5809158475691247 0  6.868257400485771 0.3427840810237202 0  6.612030892260864 0.1521752713064389 0  6.615666885941117 0.3151079644097221 0  4.04296875 0.8633718902669071 0  1.183031453639096 0.8486801864185936 0  6.9140625 0 0  6.859079526500421 0.1398292786950638 0  6.808232443325651 0.7957411753922057 0  6.9140625 1 0  4.544955211100143 0.3675874343205077 0  1.0546875 1 0  6.122060236165557 0.3316791557072867 0  0.5859375 0 0  5.9765625 0 0  5.44921875 0.870984788733638 0  4.51171875 0.870984788733638 0  0.7608354256382215 0.2931261274224557 0  6.386875332239937 0.3156583003094978 0  6.985654756850997 0.6147408423643147 0  6.223797257919172 0.8535621912121121 0  5.936822413218736 0.1338376546337823 0  6.23933008800134 0.4095573603773768 0  0.5414022462152697 0.1305482677949959 0  6.331360438104348 0.1370086318183389 0  0.956404929269873 0.1374266563647954 0  1.2890625 1 0  0.691305981127761 0.6764829884281737 0  3.531251607241209 0.8678916320952239 0  2.59787442813022 
[...]
<PointData  Vectors="f_71627"> 
<DataArray  type="Float64"  Name="f_71627"  NumberOfComponents="3" format="ascii">0.0000000000000000e+00 0.0000000000000000e+00 0.0000000000000000e+00  0.0000000000000000e+00 0.0000000000000000e+00 0.0000000000000000e+00  0.0000000000000000e+00 0.0000000000000000e+00 0.0000000000000000e+00  0.0000000000000000e+00 0.0000000000000000e+00 0.0000000000000000e+00  0.0000000000000000e+00 0.0000000000000000e+00 0.0000000000000000e+00  0.0000000000000000e+00 0.0000000000000000e+00 0.0000000000000000e+00  0.0000000000000000e+00 0.0000000000000000e+00 0.0000000000000000e+00  0.0000000000000000e+00 0.0000000000000000e+00 0.0000000000000000e+00  0.0000000000000000e+00 0.0000000000000000e+00 0.0000000000000000e+00  0.0000000000000000e+00 0.0000000000000000e+00 0.0000000000000000e+00  0.0000000000000000e+00 0.0000000000000000e+00 0.0000000000000000e+00  0.0000000000000000e+00 0.0000000000000000e+00 0.0000000000000000e+00  0.0000000000000000e+00 0.0000000000000000e+00 0.0000000000000000e+00  0.0000000000000000e+00 0.0000000000000000e+00 0.0000000000000000e+00  0.0000000000000000e+00 0.0000000000000000e+00 0.0000000000000000e+00  0.0000000000000000e+00 0.0000000000000000e+00 0.0000000000000000e+00  0.0000000000000000e+00 0.0000000000000000e+00 0.0000000000000000e+00  0.0000000000000000e+00 0.0000000000000000e+00 0.0000000000000000e+00  0.0000000000000000e+00 0.0000000000000000e+00 0.0000000000000000e+00  0.0000000000000000e+00 0.0000000000000000e+00 0.0000000000000000e+00  0.0000000000000000e+00 0.0000000000000000e+00 0.0000000000000000e+00  0.0000000000000000e+00 0.0000000000000000e+00 0.0000000000000000e+00  0.0000000000000000e+00 0.0000000000000000e+00 0.0000000000000000e+00  0.0000000000000000e+00 0.0000000000000000e+00 0.0000000000000000e+00  0.0000000000000000e+00 0.0000000000000000e+00 0.0000000000000000e+00  0.0000000000000000e+00 0.0000000000000000e+00 0.0000000000000000e+00  0.0000000000000000e+00 0.0000000000000000e+00 0.0000000000000000e+00  0.0000000000000000e+00 0.0000000000000000e+00 0.0000000000000000e+00  0.0000000000000000e+00 0.0000000000000000e+00 0.0000000000000000e+00  0.0000000000000000e+00 0.0000000000000000e+00 0.0000000000000000e+00  0.0000000000000000e+00 0.0000000000000000e+00 0.0000000000000000e+00  0.0000000000000000e+00 0.0000000000000000e+00 0.0000000000000000e+00  0.0000000000000000e+00 0.0000000000000000e+00 0.0000000000000000e+00  0.0000000000000000e+00 0.0000000000000000e+00 0.0000000000000000e+00  0.0000000000000000e+00 0.0000000000000000e+00 0.0000000000000000e+00  0.0000000000000000e+00 0.0000000000000000e+00 0.0000000000000000e+00  0.0000000000000000e+00 0.0000000000000000e+00 0.0000000000000000e+00  0.0000000000000000e+00 0.0000000000000000e+00 0.0000000000000000e+00  0.0000000000000000e+00 0.0000000000000000e+00 0.0000000000000000e+00  0.0000000000000000e+00 0.0000000000000000e+00 0.0000000000000000e+00  0.0000000000000000e+00 0.0000000000000000e+00 0.0000000000000000e+00  0.0000000000000000e+00 0.0000000000000000e+00 0.0000000000000000e+00  0.0000000000000000e+00 0.0000000000000000e+00 0.0000000000000000e+00  0.0000000000000000e+00 0.0000000000000000e+00 0.0000000000000000e+00  0.0000000000000000e+00 0.0000000000000000e+00 0.0000000000000000e+00  0.0000000000000000e+00 0.0000000000000000e+00 0.0000000000000000e+00  0.0000000000000000e+00 0.0000000000000000e+00 0.0000000000000000e+00  0.0000000000000000e+00 0.0000000000000000e+00 0.0000000000000000e+00  0.0000000000000000e+00 0.0000000000000000e+00 0.0000000000000000e+00  0.0000000000000000e+00 0.0000000000000000e+00 0.0000000000000000e+00  0.0000000000000000e+00 0.0000000000000000e+00 0.0000000000000000e+00  0.0000000000000000e+00 0.0000000000000000e+00 0.0000000000000000e+00  0.0000000000000000e+00 0.0000000000000000e+00 0.0000000000000000e+00  0.0000000000000000e+00 0.0000000000000000e+00 0.0000000000000000e+00  0.0000000000000000e+00 0.0000000000000000e+00 0.0000000000000000e+00  0.0000000000000000e+00 0.0000000000000000e+00 0.0000000000000000e+00  0.0000000000000000e+00 0.0000000000000000e+00 0.0000000000000000e+00  0.0000000000000000e+00 0.0000000000000000e+00 0.0000000000000000e+00  0.0000000000000000e+00 0.0000000000000000e+00 0.0000000000000000e+00  1.0450437803135535e+00 -1.5869759537555130e-03 0.0000000000000000e+00  1.0434020080063655e+00 -1.7511487840140404e-02 0.0000000000000000e+00  1.0558579906898384e+00 5.9315236913208861e-03 0.0000000000000000e+00  1.0492438843603649e+00 -1.3866834679195385e-03 0.0000000000000000e+00  1.0488003545732567e+00 1.5639379495849043e-03 0.0000000000000000e+00  1.5000002066314082e+00 0.0000000000000000e+00 0.0000000000000000e+00  1.1323823442717511e+00 -6.9672754974626659e-03 0.0000000000000000e+00  1.0225162917547139e+00 3.1752803797734812e-02 0.0000000000000000e+00  1.5000002066314082e+00 0.0000000000000000e+00 0.0000000000000000e+00  0.0000000000000000e+00 0.0000000000000000e+00 0.0000000000000000e+00  1.0522211383389042e+00 -5.7976545143060404e-04 0.0000000000000000e+00  0.0000000000000000e+00 0.0000000000000000e+00 0.0000000000000000e+00  0.0000000000000000e+00 0.0000000000000000e+00 0.0000000000000000e+00  1.0596612169258719e+00 3.5507493968197089e-04 0.0000000000000000e+00  0.0000000000000000e+00 0.0000000000000000e+00 0.0000000000000000e+00  0.0000000000000000e+00 0.0000000000000000e+00 0.0000000000000000e+00  0.0000000000000000e+00 0.0000000000000000e+00 0.0000000000000000e+00  1.0606175073798703e+00 4.9461598316657561e-04 0.0000000000000000e+00  0.0000000000000000e+00 0.0000000000000000e+00 0.0000000000000000e+00  0.0000000000000000e+00 0.0000000000000000e+00 0.0000000000000000e+00  1.0556760647190342e+00 -1.1599596253591495e-02 0.0000000000000000e+00  0.0000000000000000e+00 0.0000000000000000e+00 0.0000000000000000e+00  0.0000000000000000e+00 0.0000000000000000e+00 0.0000000000000000e+00  0.0000000000000000e+00 0.0000000000000000e+00 0.0000000000000000e+00  0.0000000000000000e+00 0.0000000000000000e+00 0.0000000000000000e+00  0.0000000000000000e+00 0.0000000000000000e+00 0.0000000000000000e+00  0.0000000000000000e+00 0.0000000000000000e+00 0.0000000000000000e+00  0.0000000000000000e+00 0.0000000000000000e+00 0.0000000000000000e+00  1.3635148587093719e+00 -6.2852577869081478e-03 0.0000000000000000e+00  1.1026553491643676e+00 2.2167611667132025e-03 0.0000000000000000e+00  1.0641704505685079e+00 8.8467927658666783e-03 0.0000000000000000e+00  1.0318119337334648e+00 1.1413978074294817e-02 0.0000000000000000e+00  1.0547252909467062e+00 3.5388871447028449e-03 0.0000000000000000e+00  1.0289618785854004e+00 -7.6425958080140735e-03 0.0000000000000000e+00  1.0646809395651713e+00 1.4359213954775579e-02 0.0000000000000000e+00  1.0565296682861578e+00 -1.5701696801904616e-04 0.0000000000000000e+00  1.0595300163515184e+00 1.0182358574283949e-04 0.0000000000000000e+00  1.0772266114064699e+00 6.0054470121574258e-03 0.0000000000000000e+00  7.2714448181348623e-01 -1.9625373482121532e-02 0.0000000000000000e+00  9.3629175204665172e-01 2.1153247353536450e-02 0.0000000000000000e+00  1.0527682829692697e+00 -5.8699569432571676e-03 0.0000000000000000e+00  1.1250001549735562e+00 0.0000000000000000e+00 0.0000000000000000e+00  1.0499791590904681e+00 5.0787342814719479e-03 0.0000000000000000e+00  1.0660172873594520e+00 1.0178508317719714e-02 0.0000000000000000e+00  1.1169337840120594e+00 4.3342917445758089e-01 0.0000000000000000e+00  8.9581607114566264e-01 -4.6198343948705684e-01 0.0000000000000000e+00  1.0622710151173176e+00 -1.5973113401746775e-02 0.0000000000000000e+00  1.0836100436014475e+00 -4.5943049218619978e-03 0.0000000000000000e+00  1.0810758083482199e+00 8.7693412785492149e-03 0.0000000000000000e+00  1.0793788557886819e+00 -2.0774078921128248e-02 0.0000000000000000e+00  1.0490307943998967e+00 -1.5273337257458896e-02 0.0000000000000000e+00  1.0613855990710768e+00 5.2646887323991370e-03 0.0000000000000000e+00  1.0585889061851022e+00 -3.4194215674043993e-03 0.0000000000000000e+00  1.0560167472684279e+00 4.5336845473646576e-03 0.0000000000000000e+00  1.0366207153325249e+00 2.7100915018365632e-02 0.0000000000000000e+00  1.1159866011853308e+00 -1.5406237861275505e-02 0.0000000000000000e+00  1.2322771304958959e+00 -8.0228445200841395e-02 0.0000000000000000e+00  0.0000000000000000e+00 0.0000000000000000e+00 0.0000000000000000e+00  1.1848567076391987e+00 -3.5876351429948516e-01 0.0000000000000000e+00  1.1250001549735562e+00 0.0000000000000000e+00 0.0000000000000000e+00  1.0746230132701653e+00 -2.1796050746072677e-03 0.0000000000000000e+00  0.0000000000000000e+00 0.0000000000000000e+00 0.0000000000000000e+00  1.2897923726987361e+00 5.7447767514319861e-03 0.0000000000000000e+00  1.0433730881145784e+00 2.7559102105957362e-01 0.0000000000000000e+00  1.0469547979361264e+00 -1.1274876844030944e-02 0.0000000000000000e+00  1.0879284330127379e+00 4.1302503274968011e-02 0.0000000000000000e+00  0.0000000000000000e+00 0.0000000000000000e+00 0.0000000000000000e+00  1.0518579715078233e+00 1.2689984420652431e-02 0.0000000000000000e+00  1.1250001549735562e+00 0.0000000000000000e+00 0.0000000000000000e+00  1.0334238216795768e+00 2.4893101679183448e-03 0.0000000000000000e+00  1.1250001549735562e+00 0.0000000000000000e+00 0.0000000000000000e+00  0.0000000000000000e+00 0.0000000000000000e+00 0.0000000000000000e+00  1.7642537722958582e+00 3.1356056188042380e-01 0.0000000000000000e+00  1.0624132803797988e+00 4.1960508141970125e-03 0.0000000000000000e+00  1.0522788490394377e+00 2.8154180534323957e-03 0.0000000000000000e+00  0.0000000000000000e+00 0.0000000000000000e+00 0.0000000000000000e+00  1.0811175590665969e+00 5.5124609525741951e-03 0.0000000000000000e+00  1.0587546895110016e+00 -9.7657288508855170e-04 0.0000000000000000e+00  1.0582428365366086e+00 2.9711858359138220e-03 0.0000000000000000e+00  1.1003206327257589e+00 6.4076779544428707e-03 0.0000000000000000e+00  1.0534328688264212e+00 2.3017157732751933e-04 0.0000000000000000e+00  1.0523111473440898e+00 9.0980743236455681e-03 0.0000000000000000e+00  1.0877964325304379e+00 -2.3721868677449511e-03 0.0000000000000000e+00  1.0548488820313873e+00 -1.8336269082262595e-03 0.0000000000000000e+00  1.0499735272892003e+00 -1.6201435632427581e-03 0.0000000000000000e+00  1.0569068142361366e+00 -7.5904814124705322e-03 0.0000000000000000e+00  1.0611383981532390e+00 -1.7641528300919643e-02 0.0000000000000000e+00  1.0624161724300105e+00 -6.1727296249339458e-03 0.0000000000000000e+00  1.0579808341989738e+00 6.7275555001238578e-03 0.0000000000000000e+00  1.0555319520466648e+00 2.2740478362926406e-02 0.0000000000000000e+00  0.0000000000000000e+00 0.0000000000000000e+00 0.0000000000000000e+00  1.0621759080693247e+00 -6.3654639195221579e-04 0.0000000000000000e+00  0.0000000000000000e+00 0.0000000000000000e+00 0.0000000000000000e+00  0.0000000000000000e+00 0.0000000000000000e+00 0.0000000000000000e+00  0.0000000000000000e+00 0.0000000000000000e+00 0.0000000000000000e+00  0.0000000000000000e+00 0.0000000000000000e+00 0.0000000000000000e+00  0.0000000000000000e+00 0.0000000000000000e+00 0.0000000000000000e+00  0.0000000000000000e+00 0.0000000000000000e+00 0.0000000000000000e+00  0.0000000000000000e+00 0.0000000000000000e+00 0.0000000000000000e+00  0.0000000000000000e+00 0.0000000000000000e+00 0.0000000000000000e+00  1.0001272563858741e+00 -8.9086927762792971e-03 0.0000000000000000e+00  0.0000000000000000e+00 0.0000000000000000e+00 0.0000000000000000e+00  0.0000000000000000e+00 0.0000000000000000e+00 0.0000000000000000e+00  0.0000000000000000e+00 0.0000000000000000e+00 0.0000000000000000e+00  0.0000000000000000e+00 0.0000000000000000e+00 0.0000000000000000e+00  0.0000000000000000e+00 0.0000000000000000e+00 0.0000000000000000e+00  0.0000000000000000e+00 0.0000000000000000e+00 0.0000000000000000e+00  0.0000000000000000e+00 0.0000000000000000e+00 0.0000000000000000e+00  0.0000000000000000e+00 0.0000000000000000e+00 0.0000000000000000e+00  0.0000000000000000e+00 0.0000000000000000e+00 0.0000000000000000e+00  0.0000000000000000e+00 0.0000000000000000e+00 0.0000000000000000e+00  0.0000000000000000e+00 0.0000000000000000e+00 0.0000000000000000e+00  0.0000000000000000e+00 0.0000000000000000e+00 0.0000000000000000e+00  0.0000000000000000e+00 0.0000000000000000e+00 0.0000000000000000e+00  0.0000000000000000e+00 0.0000000000000000e+00 0.0000000000000000e+00  0.0000000000000000e+00 0.0000000000000000e+00 0.0000000000000000e+00  0.0000000000000000e+00 0.0000000000000000e+00 0.0000000000000000e+00  0.0000000000000000e+00 0.0000000000000000e+00 0.0000000000000000e+00  0.0000000000000000e+00 0.0000000000000000e+00 0.0000000000000000e+00  1.1091113905309122e+00 -3.5572393420930944e-02 0.0000000000000000e+00  1.0555491093750091e+00 -1.1963346320652954e-02 0.0000000000000000e+00  1.0553036461400598e+00 -3.7164856352435536e-04 0.0000000000000000e+00  1.0708416038259412e+00 -2.1621957699920397e-04 0.0000000000000000e+00  1.0350166987482139e+00 -5.8041336270974234e-04 0.0000000000000000e+00  1.0589523591722954e+00 -6.8423539989193656e-04 0.0000000000000000e+00  1.0610249518691761e+00 -9.7589593646947570e-04 0.0000000000000000e+00  9.0688275950752284e-01 7.3987517540353986e-03 0.0000000000000000e+00  1.3400326153683708e+00 -1.6925788746534839e-01 0.0000000000000000e+00  1.3989891799838079e+00 -1.4284818779915786e-02 0.0000000000000000e+00  1.0477751311881029e+00 6.8860869562556116e-03 0.0000000000000000e+00  1.0624850885458905e+00 -6.1803519764529026e-03 0.0000000000000000e+00  1.1300459853378328e+00 -6.4097827717834481e-03 0.0000000000000000e+00  2.0104259572531165e+00 -4.6270664038592152e-01 0.0000000000000000e+00  1.0395789681900356e+00 4.2354457615977007e-03 0.0000000000000000e+00  1.3952006947715720e+00 -3.4005303296253225e-01 0.0000000000000000e+00  1.4116732445981044e+00 -2.4285551286172782e-02 0.0000000000000000e+00  1.8291201798989321e+00 1.7849784376339113e-03 0.0000000000000000e+00  1.4153844820116179e+00 -3.1633245650900317e-02 0.0000000000000000e+00  1.3420326855682596e+00 -8.8977345851835934e-03 0.0000000000000000e+00  1.1231058300921184e+00 3.7059900671712914e-02 0.0000000000000000e+00  9.7479612000109017e-01 -4.8962185758542366e-02 0.0000000000000000e+00  1.1110556067663933e+00 -5.9585393813329272e-02 0.0000000000000000e+00  1.1999410802673144e-01 9.4172651880488056e-01 0.0000000000000000e+00  1.0678922022751762e+00 8.9780365416296613e-03 0.0000000000000000e+00  1.3796563473439978e+00 1.5064304611741355e-01 0.0000000000000000e+00  1.0445498762169925e+00 1.2734284198424431e-01 0.0000000000000000e+00  8.3848403813034977e-01 -1.0445597720392665e-02 0.0000000000000000e+00  9.1296007248495992e-01 -5.3782342089165137e-02 0.0000000000000000e+00  1.0106573796464042e+00 2.8399746177519350e-03 0.0000000000000000e+00  6.0519422454808103e-01 -3.2714692364183948e-03 0.0000000000000000e+00  1.0616653614657088e+00 -1.3758294361556712e-02 0.0000000000000000e+00  1.1653578638863604e+00 8.1021097724918376e-02 0.0000000000000000e+00  7.4775008153624367e-01 1.2217475182955626e-01 0.0000000000000000e+00  1.0450005262808242e+00 2.9006060555942008e-02 0.0000000000000000e+00  9.5036110049789657e-01 -2.1497800318426231e-02 0.0000000000000000e+00  1.1288343818206623e+00 4.3893381106621926e-01 0.0000000000000000e+00  1.0616722430742485e+00 2.5924405099621615e-04 0.0000000000000000e+00  1.0578632650813327e+00 9.0587703536235974e-05 0.0000000000000000e+00  1.0554894046289285e+00 2.7993063694575792e-03 0.0000000000000000e+00  1.0454100175612857e+00 -3.4480448521841327e-03 0.0000000000000000e+00  1.0372171163309649e+00 8.3862261494417666e-04 0.0000000000000000e+00  1.0580998934022199e+00 -5.1976793024788542e-04 0.0000000000000000e+00  9.3779789431710558e-01 4.7998625564470649e-03 0.0000000000000000e+00  1.0451425862073249e+00 -9.7926589437106019e-03 0.0000000000000000e+00  1.0441160836566448e+00 2.4894096364783215e-02 0.0000000000000000e+00  1.0483732254460807e+00 2.6820099072814938e-03 0.0000000000000000e+00  1.0446457560098721e+00 -3.5123852973059306e-03 0.0000000000000000e+00  9.6804599140615832e-01 -6.1487334711266151e-03 0.0000000000000000e+00  6.5625009040124116e-01 0.0000000000000000e+00 0.0000000000000000e+00  8.5461960969117412e-01 -2.5343355634493806e-02 0.0000000000000000e+00  1.0363188086626365e+00 -1.8673089166225659e-02 0.0000000000000000e+00  3.2391541554697695e-01 -1.0641048145392795e-02 0.0000000000000000e+00  1.0569965877709604e+00 1.4653601336912649e-02 0.0000000000000000e+00  9.5122936241258849e-01 -7.7837487995709486e-03 0.0000000000000000e+00  1.0603597516112782e+00 -1.1755245415297063e-03 0.0000000000000000e+00  1.0437250694497728e+00 -6.4486640001039054e-03 0.0000000000000000e+00  1.0526308397550701e+00 -3.2581170368435751e-03 0.0000000000000000e+00  1.0701072872060380e+00 1.2949465826587599e-03 0.0000000000000000e+00  1.0516039659387630e+00 6.4059278865786166e-03 0.0000000000000000e+00  1.0360009136480868e+00 3.2641327128970980e-03 0.0000000000000000e+00  1.0678264395848525e+00 1.1110622065434264e-02 0.0000000000000000e+00  1.0567079410778599e+00 2.7475039566280376e-02 0.0000000000000000e+00  1.0577952257238583e+00 8.6438206030481583e-03 0.0000000000000000e+00  1.0823932491369856e+00 1.9412671946751666e-02 0.0000000000000000e+00  1.0435246636325961e+00 2.1132582327747277e-03 0.0000000000000000e+00  1.0425752770973762e+00 6.6624671715677835e-03 0.0000000000000000e+00  1.0471038044192829e+00 1.5214061281344653e-02 0.0000000000000000e+00  1.0326434310551327e+00 -5.7938099319126517e-03 0.0000000000000000e+00  1.4992326786799492e+00 -2.1164098259034242e-01 0.0000000000000000e+00  -4.7157825668607228e-01 -3.5890764898112892e-01 0.0000000000000000e+00  1.0412155442981117e+00 5.9461164201684102e-05 0.0000000000000000e+00  1.4597501100039925e+00 -5.3174875935338636e-02 0.0000000000000000e+00  1.0563502369398099e+00 -1.1133121689900112e-02 0.0000000000000000e+00  1.0365401851031038e+00 -2.6778111929506326e-02 0.0000000000000000e+00  1.0640425116829040e+00 4.4193844513830058e-03 0.0000000000000000e+00  1.0928490808257343e+00 -5.0447195811940293e-02 0.0000000000000000e+00  1.0580376917152092e+00 -3.5748365026777593e-03 0.0000000000000000e+00  1.0584305314680651e+00 -8.3245877460209991e-04 0.0000000000000000e+00  1.0508785040623410e+00 -2.6080236822272618e-03 0.0000000000000000e+00  1.0413463610220015e+00 9.7367590389271647e-03 0.0000000000000000e+00  1.0457428329291880e+00 -3.3134178241882753e-03 0.0000000000000000e+00  1.0840998543546208e+00 2.8854715970330447e-02 0.0000000000000000e+00  1.0605104371722380e+00 -5.5783091436857534e-03 0.0000000000000000e+00  1.0576068168547312e+00 -2.1737219240820834e-03 0.0000000000000000e+00  1.0582677662178639e+00 5.5147972952026827e-03 0.0000000000000000e+00  1.0842552905571592e+00 1.6230393211861486e-02 0.0000000000000000e+00  1.0812253307086934e+00 9.8477644661257042e-03 0.0000000000000000e+00  9.9071631699289409e-01 4.6143186255472139e-03 0.0000000000000000e+00  1.0609750360491057e+00 2.2029691042640752e-03 0.0000000000000000e+00  1.0601819105309953e+00 -1.1990106786826178e-03 0.0000000000000000e+00  1.0649486979923302e+00 9.0564582521635711e-03 0.0000000000000000e+00  1.0652009389854245e+00 -9.1087769746863286e-05 0.0000000000000000e+00  1.0281569034175297e+00 7.2386857886817969e-03 0.0000000000000000e+00  1.0436986105723498e+00 -4.4922786623380649e-04 0.0000000000000000e+00  1.0751908490111706e+00 2.6655058386773089e-03 0.0000000000000000e+00  1.0411218353143197e+00 5.2229875040518204e-03 0.0000000000000000e+00  1.0431658572863651e+00 1.2360758949477980e-02 0.0000000000000000e+00  1.0463438452413945e+00 -3.4664601766930515e-03 0.0000000000000000e+00  1.0500994679084423e+00 -2.9710611514203664e-03 0.0000000000000000e+00  1.0370620801247143e+00 -1.9724004552188902e-02 0.0000000000000000e+00  1.1898071632972924e+00 -4.0293582351383800e-01 0.0000000000000000e+00  1.0111078658604804e+00 -1.9445673893940654e-02 0.0000000000000000e+00  1.0396010403217679e+00 2.3450691131831729e-02 0.0000000000000000e+00  1.0650326161798427e+00 -5.6959361590417420e-03 0.000000000