<?xml version="1.0"?>
<VTKFile type="UnstructuredGrid"  version="0.1"  >
<UnstructuredGrid>
<Piece  NumberOfPoints="4269" NumberOfCells="8234">
<Points>
<DataArray  type="Float64"  NumberOfComponents="3"  format="ascii">0 1 0  0 0 0  7.5 0 0  7.5 1 0  1.197537668119028 0.5812868930080463 0  1.2 0.55 0  1.197537668119028 0.5187131069919538 0  1.190211303259031 0.4881966011250105 0  1.178201304837674 0.4592019000520907 0  1.161803398874989 0.4324429495415054 0  1.141421356237309 0.4085786437626905 0  1.117557050458495 0.3881966011250105 0  1.090798099947909 0.3717986951623264 0  1.06180339887499 0.3597886967409693 0  1.031286893008046 0.3524623318809725 0  1 0.35 0  0.9687131069919538 0.3524623318809725 0  0.9381966011250105 0.3597886967409694 0  0.9092019000520906 0.3717986951623264 0  0.8824429495415054 0.3881966011250105 0  0.8585786437626904 0.4085786437626905 0  0.8381966011250105 0.4324429495415054 0  0.8217986951623264 0.4592019000520907 0  0.8097886967409692 0.4881966011250107 0  0.8024623318809725 0.5187131069919539 0  0.8 0.55 0  0.8024623318809725 0.5812868930080463 0  0.8097886967409693 0.6118033988749896 0  0.8217986951623264 0.6407980999479095 0  0.8381966011250105 0.6675570504584947 0  0.8585786437626906 0.6914213562373096 0  0.8824429495415054 0.7118033988749896 0  0.9092019000520907 0.7282013048376736 0  0.9381966011250106 0.7402113032590307 0  0.9687131069919539 0.7475376681190276 0  1 0.75 0  1.031286893008046 0.7475376681190276 0  1.06180339887499 0.7402113032590307 0  1.090798099947909 0.7282013048376736 0  1.117557050458495 0.7118033988749896 0  1.141421356237309 0.6914213562373095 0  1.161803398874989 0.6675570504584947 0  1.178201304837674 0.6407980999479094 0  1.190211303259031 0.6118033988749896 0  3.75 0 0  3.75 1 0  1.875 0 0  1.875 1 0  0.9375 0 0  0.9375 1 0  1.40625 1 0  5.625 1 0  5.625 0 0  2.8125 1 0  2.8125 0 0  4.6875 0 0  4.6875 1 0  6.5625 0 0  6.5625 1 0  5.15625 0.5 0  4.21875 0.5 0  2.34375 0.5 0  3.28125 0.5 0  6.09375 0.5 0  7.5 0.5 0  6.897916666666666 0.5 0  1.842708333333333 0.5 0  0 0.5 0  0.46875 0 0  5.625 0.5302734375 0  7.03125 0 0  6.09375 1 0  2.8125 0.4697265625 0  3.28125 0 0  2.34375 1 0  2.34375 0 0  3.75 0.4697265625 0  4.21875 0 0  4.21875 1 0  4.6875 0.5302734375 0  3.28125 1 0  5.15625 0 0  6.09375 0 0  5.15625 1 0  0.46875 1 0  1.40625 0 0  7.03125 1 0  0.3954638734376499 0.5975780249976004 0  6.495833333333334 0.4072265624999998 0  5.859375 0.25 0  4.905729166666666 0.26513671875 0  4.453125 0.25 0  3.531770833333333 0.73486328125 0  3.968229166666667 0.73486328125 0  2.594270833333333 0.73486328125 0  3.030729166666667 0.73486328125 0  6.328125 0.75 0  7.198958333333334 0.3125000000000002 0  7.198958333333334 0.6874999999999998 0  5.390625 0.25 0  0 0.25 0  2.109375 0.75 0  2.109375 0.25 0  1.51921323205749 0.3418883887525936 0  1.522346610178253 0.6811769608297746 0  5.375456746419271 0.75 0  4.921875 0.76513671875 0  4.437956746419271 0.75 0  3.984375 0.23486328125 0  3.500456746419271 0.25 0  2.578125 0.23486328125 0  3.046875 0.23486328125 0  5.874543253580729 0.75 0  6.642123189445656 0.6909095493086836 0  6.746354166666666 0.2391688368055553 0  0.3197109619185111 0.2850049285972083 0  6.328125 0 0  0.6313375889370429 0.2351325552547357 0  0 0.75 0  6.252283381534729 0.2693808819694041 0  0.234375 1 0  6.948437500000001 0.7543055555555555 0  0.5934018769555939 0.7694151657947577 0  1.858854166666667 0.75 0  1.858854166666667 0.25 0  1.640625 0 0  2.093229166666667 0.5 0  7.5 0.25 0  3.282227579752604 0.75 0  7.5 0.75 0  1.171875 0 0  1.303539853147731 0.2235426933121065 0  5.148177083333333 0.2575683593749998 0  2.351822916666667 0.742431640625 0  1.640625 1 0  4.202380413457425 0.7645435094236485 0  3.047822985053062 0.4701848030090332 0  2.577177014946938 0.4701848030090332 0  4.672792740482199 0.76513671875 0  4.922822985053062 0.5298151969909668 0  5.390593497949761 0.5156244924311331 0  5.610292740482199 0.76513671875 0  3.516602579752604 0.5 0  4.45496853898097 0.4865915990446593 0  5.85753146101903 0.4865915990446593 0  3.749511210123698 0.23486328125 0  3.983397420247396 0.4999999999999999 0  2.343497975411212 0.2346270081980111 0  4.219002024588788 0.2346270081980111 0  0.703125 0 0  2.8125 0.2343755075688669 0  3.046875 0 0  2.578125 0 0  3.515625 0 0  3.984375 0 0  4.453125 1 0  5.390625 1 0  2.109375 0 0  2.109375 1 0  5.625 0.2921402030705575 0  5.390625 0 0  7.265625 0 0  6.796875 0 0  6.328125 1 0  3.046875 1 0  2.578125 1 0  3.984375 1 0  3.515625 1 0  4.453125 0 0  4.921875 0 0  5.859375 0 0  0.703125 1 0  1.171875 1 0  7.265625 1 0  4.921875 1 0  5.859375 1 0  0.234375 0 0  6.796875 1 0  6.980310975276531 0.2285890127127066 0  5.149170481934885 0.772689292163473 0  3.274170481934884 0.2273107078365268 0  6.101334126790364 0.7722468376159667 0  4.678005340872584 0.3000799877067239 0  2.8125 0.6921051326382495 0  3.75 0.6921051326382495 0  0.3515624999999999 0.8134571721668546 0  0.4990405774417521 0.4070099317153735 0  0.1789273931360182 0.625 0  6.31239060814315 0.5298877111157968 0  6.456979773992304 0.1917956348713352 0  6.699870808919271 0.4406293402777773 0  1.337539480965883 0.7944303676599538 0  6.058675797563041 0.2019812164653516 0  0.8203125 0.1643029084422534 0  0.1480856513011711 0.375 0  1.090769294689562 0.1719186776982972 0  7.291088163206459 0.5 0  7.094502414936563 0.5197902199074071 0  0.6046212059042245 0.5730066483871106 0  1.707231580809486 0.6342709161352207 0  1.685961352504593 0.8193269193390785 0  1.374721602852827 0.4600373025865813 0  6.486415510043844 0.5916440776477192 0  1.5234375 0.1508863828685116 0  1.707925830421689 0.3657739208189008 0  0.1674513225045584 0.8278776664019765 0  7.138268756771176 0.1438183366439137 0  7.1484375 0.8616388888888887 0  7.328562530764119 0.819498462930605 0  4.101073710123698 0.3678637200736647 0  1.693878467219965 0.1911955120941053 0  1.577566745468488 0.5110082404081502 0  6.6796875 0.8653871806883484 0  6.498039504430512 0.825568433346395 0  0.7562556668576472 0.8333197949571929 0  4.101045914668806 0.6255195807449272 0  5.030745188395182 0.382829047309028 0  2.476364945868651 0.6095868094762166 0  2.729359843907322 0.8460525663191247 0  2.9296875 0.8740763101564099 0  3.163518307559356 0.6254622797994247 0  3.666859843907322 0.8460525663191247 0  3.8671875 0.8740763101564099 0  4.8046875 0.12592368984359 0  3.14936031382311 0.8606990583876851 0  2.4609375 0.8747622921397776 0  5.023140791101972 0.1392266772452574 0  0 0.125 0  0.1759922923594607 0.1727589856739889 0  4.5703125 0.125 0  7.327755777818006 0.1766156770456191 0  5.5078125 0.125 0  5.719712725029036 0.1460701015352787 0  4.327848962028002 0.3674169956512513 0  5.982681121544351 0.3692637923021713 0  3.398926289876302 0.6245417594909667 0  5.281756792511996 0.3827993367299961 0  2.226822645963271 0.6252438868405666 0  2.234390064317166 0.8676616584526566 0  5.2734375 0.125 0  1.96796875 0.382568359375 0  2.234651037971999 0.3674169956512511 0  1.984114583333333 0.132568359375 0  1.9921875 0.875 0  1.984114583333333 0.632568359375 0  5.748733794462357 0.8678269127183313 0  3.3984375 0.875456329184688 0  1.512925924995415 0.8582958012121853 0  1.359299372802969 0.6275861864990343 0  4.810521420483513 0.4041767793635395 0  0.2996213306116602 0.455339710363317 0  5.999933717403708 0.6388425470751088 0  5.250033449003657 0.6388713364551682 0  3.631676045992918 0.3525406652400928 0  4.3359375 0.8816499670325881 0  4.343577437052484 0.6116511299909198 0  3.375033449003656 0.3611286635448316 0  5.763152151652243 0.6249404690537395 0  4.549347848347757 0.6249404690537396 0  5.5004588702411 0.6403667365776566 0  5.976118394847484 0.8816230218343086 0  5.054722486865804 0.6338007028640954 0  3.164542163493752 0.3520519332736524 0  2.445407482032355 0.3672168403687257 0  4.8046875 0.882568359375 0  4.1015625 0.117431640625 0  2.4609375 0.117431640625 0  2.695556894938151 0.3520510350344335 0  2.929443105061849 0.3520510350344335 0  3.881979231817319 0.3670559016511187 0  3.8671875 0.117431640625 0  4.805389247695744 0.6470047893641744 0  3.399370721942191 0.1184066543556767 0  5.274370721942192 0.881593345644323 0  3.618253274934649 0.1316869186284249 0  2.6953125 0.1171877537844335 0  2.9296875 0.1171877537844335 0  2.21873344389451 0.125 0  4.3359375 0.1171877625080073 0  0.6659898565672709 0.3986593551313873 0  7.363359022954956 0.3481046411219251 0  7.363359022954956 0.6518953588780749 0  5.487719392831826 0.3828237631077121 0  2.695054578344725 0.5809158475691247 0  2.944553877887707 0.5964065668438148 0  0.3515625 0.1201898858097106 0  5.5078125 1 0  4.5703125 1 0  5.031746201297604 0.882568359375 0  3.1640625 0 0  6.2109375 1 0  6.186845385763124 0.6336356480571081 0  4.1015625 1 0  6.810399074069772 0.6495574751396682 0  0.4740615253480797 0.2509287743856873 0  7.052064303830151 0.3684417917792242 0  6.195177069665382 0.1216488332168849 0  5.72300154718324 0.4112068202852788 0  3.879157465495092 0.6111892850691246 0  3.645760045247695 0.5809158475691247 0  6.868257400485771 0.3427840810237202 0  6.612030892260864 0.1521752713064389 0  6.615666885941117 0.3151079644097221 0  4.04296875 0.8633718902669071 0  1.183031453639096 0.8486801864185936 0  6.9140625 0 0  6.859079526500421 0.1398292786950638 0  6.808232443325651 0.7957411753922057 0  6.9140625 1 0  4.544955211100143 0.3675874343205077 0  1.0546875 1 0  6.122060236165557 0.3316791557072867 0  0.5859375 0 0  5.9765625 0 0  5.44921875 0.870984788733638 0  4.51171875 0.870984788733638 0  0.7608354256382215 0.2931261274224557 0  6.386875332239937 0.3156583003094978 0  6.985654756850997 0.6147408423643147 0  6.223797257919172 0.8535621912121121 0  5.936822413218736 0.1338376546337823 0  6.23933008800134 0.4095573603773768 0  0.5414022462152697 0.1305482677949959 0  6.331360438104348 0.1370086318183389 0  0.956404929269873 0.1374266563647954 0  1.2890625 1 0  0.691305981127761 0.6764829884281737 0  3.531251607241209 0.8678916320952239 0  2.59787442813022 
[...]
<PointData  Vectors="f_71627"> 
<DataArray  type="Float64"  Name="f_71627"  NumberOfComponents="3" format="ascii">0.0000000000000000e+00 0.0000000000000000e+00 0.0000000000000000e+00  0.0000000000000000e+00 0.0000000000000000e+00 0.0000000000000000e+00  0.0000000000000000e+00 0.0000000000000000e+00 0.0000000000000000e+00  0.0000000000000000e+00 0.0000000000000000e+00 0.0000000000000000e+00  0.0000000000000000e+00 0.0000000000000000e+00 0.0000000000000000e+00  0.0000000000000000e+00 0.0000000000000000e+00 0.0000000000000000e+00  0.0000000000000000e+00 0.0000000000000000e+00 0.0000000000000000e+00  0.0000000000000000e+00 0.0000000000000000e+00 0.0000000000000000e+00  0.0000000000000000e+00 0.0000000000000000e+00 0.0000000000000000e+00  0.0000000000000000e+00 0.0000000000000000e+00 0.0000000000000000e+00  0.0000000000000000e+00 0.0000000000000000e+00 0.0000000000000000e+00  0.0000000000000000e+00 0.0000000000000000e+00 0.0000000000000000e+00  0.0000000000000000e+00 0.0000000000000000e+00 0.0000000000000000e+00  0.0000000000000000e+00 0.0000000000000000e+00 0.0000000000000000e+00  0.0000000000000000e+00 0.0000000000000000e+00 0.0000000000000000e+00  0.0000000000000000e+00 0.0000000000000000e+00 0.0000000000000000e+00  0.0000000000000000e+00 0.0000000000000000e+00 0.0000000000000000e+00  0.0000000000000000e+00 0.0000000000000000e+00 0.0000000000000000e+00  0.0000000000000000e+00 0.0000000000000000e+00 0.0000000000000000e+00  0.0000000000000000e+00 0.0000000000000000e+00 0.0000000000000000e+00  0.0000000000000000e+00 0.0000000000000000e+00 0.0000000000000000e+00  0.0000000000000000e+00 0.0000000000000000e+00 0.0000000000000000e+00  0.0000000000000000e+00 0.0000000000000000e+00 0.0000000000000000e+00  0.0000000000000000e+00 0.0000000000000000e+00 0.0000000000000000e+00  0.0000000000000000e+00 0.0000000000000000e+00 0.0000000000000000e+00  0.0000000000000000e+00 0.0000000000000000e+00 0.0000000000000000e+00  0.0000000000000000e+00 0.0000000000000000e+00 0.0000000000000000e+00  0.0000000000000000e+00 0.0000000000000000e+00 0.0000000000000000e+00  0.0000000000000000e+00 0.0000000000000000e+00 0.0000000000000000e+00  0.0000000000000000e+00 0.0000000000000000e+00 0.0000000000000000e+00  0.0000000000000000e+00 0.0000000000000000e+00 0.0000000000000000e+00  0.0000000000000000e+00 0.0000000000000000e+00 0.0000000000000000e+00  0.0000000000000000e+00 0.0000000000000000e+00 0.0000000000000000e+00  0.0000000000000000e+00 0.0000000000000000e+00 0.0000000000000000e+00  0.0000000000000000e+00 0.0000000000000000e+00 0.0000000000000000e+00  0.0000000000000000e+00 0.0000000000000000e+00 0.0000000000000000e+00  0.0000000000000000e+00 0.0000000000000000e+00 0.0000000000000000e+00  0.0000000000000000e+00 0.0000000000000000e+00 0.0000000000000000e+00  0.0000000000000000e+00 0.0000000000000000e+00 0.0000000000000000e+00  0.0000000000000000e+00 0.0000000000000000e+00 0.0000000000000000e+00  0.0000000000000000e+00 0.0000000000000000e+00 0.0000000000000000e+00  0.0000000000000000e+00 0.0000000000000000e+00 0.0000000000000000e+00  0.0000000000000000e+00 0.0000000000000000e+00 0.0000000000000000e+00  0.0000000000000000e+00 0.0000000000000000e+00 0.0000000000000000e+00  0.0000000000000000e+00 0.0000000000000000e+00 0.0000000000000000e+00  0.0000000000000000e+00 0.0000000000000000e+00 0.0000000000000000e+00  0.0000000000000000e+00 0.0000000000000000e+00 0.0000000000000000e+00  0.0000000000000000e+00 0.0000000000000000e+00 0.0000000000000000e+00  0.0000000000000000e+00 0.0000000000000000e+00 0.0000000000000000e+00  0.0000000000000000e+00 0.0000000000000000e+00 0.0000000000000000e+00  0.0000000000000000e+00 0.0000000000000000e+00 0.0000000000000000e+00  0.0000000000000000e+00 0.0000000000000000e+00 0.0000000000000000e+00  0.0000000000000000e+00 0.0000000000000000e+00 0.0000000000000000e+00  0.0000000000000000e+00 0.0000000000000000e+00 0.0000000000000000e+00  0.0000000000000000e+00 0.0000000000000000e+00 0.0000000000000000e+00  0.0000000000000000e+00 0.0000000000000000e+00 0.0000000000000000e+00  0.0000000000000000e+00 0.0000000000000000e+00 0.0000000000000000e+00  0.0000000000000000e+00 0.0000000000000000e+00 0.0000000000000000e+00  0.0000000000000000e+00 0.0000000000000000e+00 0.0000000000000000e+00  1.1117789279601038e+00 6.5322872777229192e-04 0.0000000000000000e+00  1.1160256875479821e+00 -3.0187771417207886e-03 0.0000000000000000e+00  1.7067355308124890e+00 8.1467647040632963e-03 0.0000000000000000e+00  1.0876556147123564e+00 -1.5519406983365877e-01 0.0000000000000000e+00  1.1106964483952850e+00 -8.2451758880694513e-04 0.0000000000000000e+00  1.5000002102499115e+00 0.0000000000000000e+00 0.0000000000000000e+00  1.1911989001014180e+00 -2.3031334452187301e-03 0.0000000000000000e+00  8.5426158888060522e-01 -1.0459100298391898e-01 0.0000000000000000e+00  1.5000002102499115e+00 0.0000000000000000e+00 0.0000000000000000e+00  0.0000000000000000e+00 0.0000000000000000e+00 0.0000000000000000e+00  1.1193041978534661e+00 2.0371768404406517e-04 0.0000000000000000e+00  0.0000000000000000e+00 0.0000000000000000e+00 0.0000000000000000e+00  0.0000000000000000e+00 0.0000000000000000e+00 0.0000000000000000e+00  1.4619969120079830e+00 2.0276352049101343e-01 0.0000000000000000e+00  0.0000000000000000e+00 0.0000000000000000e+00 0.0000000000000000e+00  0.0000000000000000e+00 0.0000000000000000e+00 0.0000000000000000e+00  0.0000000000000000e+00 0.0000000000000000e+00 0.0000000000000000e+00  1.1086116052867154e+00 -2.3107911069259347e-02 0.0000000000000000e+00  0.0000000000000000e+00 0.0000000000000000e+00 0.0000000000000000e+00  0.0000000000000000e+00 0.0000000000000000e+00 0.0000000000000000e+00  1.1155931403841128e+00 1.7436460348140047e-04 0.0000000000000000e+00  0.0000000000000000e+00 0.0000000000000000e+00 0.0000000000000000e+00  0.0000000000000000e+00 0.0000000000000000e+00 0.0000000000000000e+00  0.0000000000000000e+00 0.0000000000000000e+00 0.0000000000000000e+00  0.0000000000000000e+00 0.0000000000000000e+00 0.0000000000000000e+00  0.0000000000000000e+00 0.0000000000000000e+00 0.0000000000000000e+00  0.0000000000000000e+00 0.0000000000000000e+00 0.0000000000000000e+00  0.0000000000000000e+00 0.0000000000000000e+00 0.0000000000000000e+00  1.3582820871352945e+00 -5.7359249665378940e-02 0.0000000000000000e+00  1.1379246440195494e+00 -5.3848206141366211e-03 0.0000000000000000e+00  1.1121406862828034e+00 -3.4957665496729911e-03 0.0000000000000000e+00  1.1002941353670244e+00 6.6806603129053823e-04 0.0000000000000000e+00  1.0986820119451322e+00 7.2054116330267336e-04 0.0000000000000000e+00  1.1573635569418659e+00 -3.8825012315177605e-02 0.0000000000000000e+00  1.1240903153205695e+00 -6.4289844927151599e-03 0.0000000000000000e+00  4.3880274763536475e-01 9.8791889984899239e-01 0.0000000000000000e+00  1.4523475830340382e+00 -1.9641649515968782e-02 0.0000000000000000e+00  1.1170141560897549e+00 1.5498408951762857e-04 0.0000000000000000e+00  8.1565550519792085e-01 -1.4666701170499028e-03 0.0000000000000000e+00  9.5685253164585204e-01 1.4129539929711186e-02 0.0000000000000000e+00  1.1051486165218578e+00 1.0698581229142145e-03 0.0000000000000000e+00  1.1250001576874336e+00 0.0000000000000000e+00 0.0000000000000000e+00  5.7600588576801737e-01 -1.3655190852111276e-01 0.0000000000000000e+00  1.2936321433925033e+00 -2.6201477312973609e-01 0.0000000000000000e+00  2.0021367475799261e+00 9.5939158881073694e-01 0.0000000000000000e+00  3.6704061283062345e-01 1.9712025878442382e-01 0.0000000000000000e+00  1.1144960216361668e+00 1.6467260339317286e-03 0.0000000000000000e+00  1.1177854425981169e+00 2.7964800445063080e-03 0.0000000000000000e+00  1.1176835211518501e+00 -3.6775785606252787e-05 0.0000000000000000e+00  1.1020788648213318e+00 -6.5093657395022004e-03 0.0000000000000000e+00  1.0598910483827879e+00 -3.7270498498151561e-02 0.0000000000000000e+00  1.0879693501598191e+00 2.8327671759804418e-01 0.0000000000000000e+00  9.0175373336325337e-01 -1.2793769721816789e-01 0.0000000000000000e+00  1.1176721440754349e+00 1.6498803527551194e-03 0.0000000000000000e+00  1.0980388881421108e+00 -1.0864333975003806e-03 0.0000000000000000e+00  1.1179166117179939e+00 -9.3383394824077710e-03 0.0000000000000000e+00  1.2412703821546263e+00 -1.0771697388401967e-01 0.0000000000000000e+00  0.0000000000000000e+00 0.0000000000000000e+00 0.0000000000000000e+00  1.2900913278403141e+00 -3.2772796115073471e-01 0.0000000000000000e+00  1.1250001576874336e+00 0.0000000000000000e+00 0.0000000000000000e+00  1.1242574473542599e+00 1.6553309642829328e-03 0.0000000000000000e+00  0.0000000000000000e+00 0.0000000000000000e+00 0.0000000000000000e+00  1.2590927356142274e+00 -5.7122819027877435e-03 0.0000000000000000e+00  1.0032099896617788e+00 1.8042966662031681e-01 0.0000000000000000e+00  1.8990877145423328e+00 -1.1609907110036981e+00 0.0000000000000000e+00  1.1344168726153336e+00 -6.0612702576837478e-02 0.0000000000000000e+00  0.0000000000000000e+00 0.0000000000000000e+00 0.0000000000000000e+00  1.9082623958030371e+00 -1.0703564455412660e+00 0.0000000000000000e+00  1.1250001576874336e+00 0.0000000000000000e+00 0.0000000000000000e+00  1.2420210685831210e+00 -9.0734590708589566e-02 0.0000000000000000e+00  1.1250001576874336e+00 0.0000000000000000e+00 0.0000000000000000e+00  0.0000000000000000e+00 0.0000000000000000e+00 0.0000000000000000e+00  2.2313324967776107e+00 2.1349994292606142e-01 0.0000000000000000e+00  1.1059777327156641e+00 7.6383742038642908e-04 0.0000000000000000e+00  3.8536074097096068e-01 -2.1293362565697818e-01 0.0000000000000000e+00  0.0000000000000000e+00 0.0000000000000000e+00 0.0000000000000000e+00  1.1232467379431619e+00 -1.1904443883162558e-03 0.0000000000000000e+00  9.6335166270229811e-01 -1.2123930017367142e-01 0.0000000000000000e+00  2.3317687982086790e+00 1.0273018142278567e+00 0.0000000000000000e+00  1.1186285825310391e+00 3.0151574975787051e-04 0.0000000000000000e+00  1.1117006038466082e+00 7.1508538967262952e-04 0.0000000000000000e+00  1.1150236403553149e+00 1.7681316523525917e-03 0.0000000000000000e+00  1.1149869148742435e+00 7.3252099005325332e-04 0.0000000000000000e+00  1.1143276809954148e+00 -5.9540550621366192e-02 0.0000000000000000e+00  1.1118608674019645e+00 -3.9357737616401540e-04 0.0000000000000000e+00  1.1207957965938826e+00 -6.0070720848924835e-04 0.0000000000000000e+00  1.0896412779947267e+00 -1.4850383838607924e-02 0.0000000000000000e+00  1.1176281524561680e+00 -8.4223405991010782e-03 0.0000000000000000e+00  1.9146023839263162e+00 5.4874210283667746e-01 0.0000000000000000e+00  1.0989288088836224e+00 -2.9382210354589248e-03 0.0000000000000000e+00  0.0000000000000000e+00 0.0000000000000000e+00 0.0000000000000000e+00  7.5857605271344142e-01 -2.9497482847110157e-01 0.0000000000000000e+00  0.0000000000000000e+00 0.0000000000000000e+00 0.0000000000000000e+00  0.0000000000000000e+00 0.0000000000000000e+00 0.0000000000000000e+00  0.0000000000000000e+00 0.0000000000000000e+00 0.0000000000000000e+00  0.0000000000000000e+00 0.0000000000000000e+00 0.0000000000000000e+00  0.0000000000000000e+00 0.0000000000000000e+00 0.0000000000000000e+00  0.0000000000000000e+00 0.0000000000000000e+00 0.0000000000000000e+00  0.0000000000000000e+00 0.0000000000000000e+00 0.0000000000000000e+00  0.0000000000000000e+00 0.0000000000000000e+00 0.0000000000000000e+00  1.1057583107280136e+00 1.2667022034889969e-03 0.0000000000000000e+00  0.0000000000000000e+00 0.0000000000000000e+00 0.0000000000000000e+00  0.0000000000000000e+00 0.0000000000000000e+00 0.0000000000000000e+00  0.0000000000000000e+00 0.0000000000000000e+00 0.0000000000000000e+00  0.0000000000000000e+00 0.0000000000000000e+00 0.0000000000000000e+00  0.0000000000000000e+00 0.0000000000000000e+00 0.0000000000000000e+00  0.0000000000000000e+00 0.0000000000000000e+00 0.0000000000000000e+00  0.0000000000000000e+00 0.0000000000000000e+00 0.0000000000000000e+00  0.0000000000000000e+00 0.0000000000000000e+00 0.0000000000000000e+00  0.0000000000000000e+00 0.0000000000000000e+00 0.0000000000000000e+00  0.0000000000000000e+00 0.0000000000000000e+00 0.0000000000000000e+00  0.0000000000000000e+00 0.0000000000000000e+00 0.0000000000000000e+00  0.0000000000000000e+00 0.0000000000000000e+00 0.0000000000000000e+00  0.0000000000000000e+00 0.0000000000000000e+00 0.0000000000000000e+00  0.0000000000000000e+00 0.0000000000000000e+00 0.0000000000000000e+00  0.0000000000000000e+00 0.0000000000000000e+00 0.0000000000000000e+00  0.0000000000000000e+00 0.0000000000000000e+00 0.0000000000000000e+00  0.0000000000000000e+00 0.0000000000000000e+00 0.0000000000000000e+00  0.0000000000000000e+00 0.0000000000000000e+00 0.0000000000000000e+00  1.1616928306193142e+00 -2.0666238576576498e-03 0.0000000000000000e+00  1.1157293480501436e+00 3.3274017821851142e-03 0.0000000000000000e+00  9.9446281231750677e-01 -6.1683351354640016e-02 0.0000000000000000e+00  1.1171693312811999e+00 -2.4985357972160714e-03 0.0000000000000000e+00  1.1048365253610259e+00 -3.3451678864885567e-04 0.0000000000000000e+00  1.2192601260827642e+00 5.3591222883349499e-01 0.0000000000000000e+00  1.1277315931509053e+00 -1.9206717222207913e-02 0.0000000000000000e+00  8.8706543482738787e-01 5.8757274962839209e-03 0.0000000000000000e+00  1.3687669893223053e+00 -2.0634359273045227e-01 0.0000000000000000e+00  1.3926511128672177e+00 -3.2764342092241001e-02 0.0000000000000000e+00  1.1118297561299297e+00 -1.6652336170819037e-03 0.0000000000000000e+00  1.1384539410478542e+00 -4.2790994341872666e-03 0.0000000000000000e+00  1.1713296571982834e+00 -8.1231303873039243e-03 0.0000000000000000e+00  1.4422188116010359e+00 9.0821241903813701e-02 0.0000000000000000e+00  1.1223764596939636e+00 2.8070312011651438e-03 0.0000000000000000e+00  1.5155099229966074e+00 -3.4770275217139046e-01 0.0000000000000000e+00  1.4054332839978099e+00 -4.3174419463050832e-02 0.0000000000000000e+00  2.0574500837744449e+00 -8.7744936956599684e-02 0.0000000000000000e+00  1.3878013552525388e+00 -1.6266480896727632e-03 0.0000000000000000e+00  1.3547682977248534e+00 1.5610482002118436e-03 0.0000000000000000e+00  1.1363234037251115e+00 -3.1906115397816508e-02 0.0000000000000000e+00  1.0183205345874398e+00 -1.2655493447602223e-01 0.0000000000000000e+00  2.1608059044257026e+00 -6.9430642567240730e-01 0.0000000000000000e+00  2.6560849952300958e-01 1.5837959829822273e-01 0.0000000000000000e+00  1.1177590505686965e+00 -2.6550930443201629e-03 0.0000000000000000e+00  1.6162953363783366e+00 3.0607991838196164e-01 0.0000000000000000e+00  1.0381683778945032e+00 6.7969579967183780e-01 0.0000000000000000e+00  8.4739587993271837e-01 -1.2901880963918420e-02 0.0000000000000000e+00  9.2349711171726090e-01 -2.8327049306534572e-03 0.0000000000000000e+00  1.0354118788441866e+00 -2.8791213731655233e-03 0.0000000000000000e+00  7.7914672835049303e-01 -9.0640092144958877e-03 0.0000000000000000e+00  1.1081184333928076e+00 -3.7542265795671810e-03 0.0000000000000000e+00  1.3236042958922560e+00 2.6369751331570013e-01 0.0000000000000000e+00  -6.4218957580760816e-01 1.1342933646927906e+00 0.0000000000000000e+00  1.1237222465087089e+00 7.4849555101807203e-03 0.0000000000000000e+00  1.0536830101517558e+00 -4.6194760932330853e-03 0.0000000000000000e+00  1.0784430546247961e+00 3.9000989132168090e-01 0.0000000000000000e+00  1.1232000084644937e+00 -4.8156251558948435e-03 0.0000000000000000e+00  1.1101722275801211e+00 8.0003831467561834e-04 0.0000000000000000e+00  1.5243487262408597e+00 1.7571535508472330e-01 0.0000000000000000e+00  8.8221643521144821e-01 3.7905531045381574e-01 0.0000000000000000e+00  1.4254048381362714e+00 1.9960487648607916e-02 0.0000000000000000e+00  1.2047940408128179e+00 -2.9512726938005862e-01 0.0000000000000000e+00  1.1152488083782326e+00 -9.1263696289605456e-03 0.0000000000000000e+00  1.0753047940495524e+00 -3.7387873287394210e-03 0.0000000000000000e+00  1.0599344157550334e+00 1.3834566695993540e-03 0.0000000000000000e+00  1.2450105519176486e+00 -6.2040685826195333e-02 0.0000000000000000e+00  -2.4668864912463943e-02 1.8646625367482994e-01 0.0000000000000000e+00  1.0800749835672188e+00 2.2169135574143083e-03 0.0000000000000000e+00  6.5625009198433637e-01 0.0000000000000000e+00 0.0000000000000000e+00  8.6912524794466617e-01 -4.1181509983535175e-02 0.0000000000000000e+00  1.0555559731163475e+00 2.1276470232843526e-04 0.0000000000000000e+00  5.0249987661299511e-01 2.7709306367452592e-02 0.0000000000000000e+00  1.0660884507087232e+00 7.2712437005142125e-04 0.0000000000000000e+00  1.0878670875111609e+00 -2.7016070329444128e-03 0.0000000000000000e+00  1.1068395277043808e+00 -2.3721249288436259e-03 0.0000000000000000e+00  1.0999729946010879e+00 -8.3555004705616930e-04 0.0000000000000000e+00  1.1608876001568755e+00 -9.3059014192986900e-02 0.0000000000000000e+00  1.1111652528919769e+00 9.1059931395150379e-04 0.0000000000000000e+00  1.3717379013350011e+00 2.8804431089156913e-02 0.0000000000000000e+00  8.8783183531619500e-02 6.1649907200920631e-02 0.0000000000000000e+00  1.0683578384607779e+00 1.3659948917608776e-04 0.0000000000000000e+00  5.8270175548615577e-01 -5.2480357910264241e-01 0.0000000000000000e+00  1.5421910357241919e+00 -2.3470404108534731e-01 0.0000000000000000e+00  1.2387317334924794e+00 -7.2203002506640648e-02 0.0000000000000000e+00  9.2650486122554360e-02 -3.0244894940174138e-01 0.0000000000000000e+00  2.1539402360914233e+00 -1.4113331806538887e+00 0.0000000000000000e+00  1.0826626717342296e+00 9.3475435830620349e-04 0.0000000000000000e+00  1.1388980657854473e+00 -2.1187370741989033e-02 0.0000000000000000e+00  2.2238192191503670e+00 -2.5817667359364133e-01 0.0000000000000000e+00  -1.0117246130442066e+00 4.8314822715628525e-01 0.0000000000000000e+00  1.1095679866789194e+00 2.5816542899513535e-04 0.0000000000000000e+00  1.4601653457616908e+00 -9.2644563500263177e-02 0.0000000000000000e+00  1.1118629188641518e+00 -9.2746530134392869e-05 0.0000000000000000e+00  1.1156674385041696e+00 1.0912590171124972e-03 0.0000000000000000e+00  1.0905802180623800e+00 -3.1173691990712286e-02 0.0000000000000000e+00  1.0558144962789942e+00 2.5366570973409308e-03 0.0000000000000000e+00  1.1217596733125199e+00 -2.2779145742359889e-03 0.0000000000000000e+00  1.0571457240746214e+00 -8.1063764305493100e-02 0.0000000000000000e+00  1.1165386676488636e+00 1.4337774657129154e-05 0.0000000000000000e+00  1.1160875675806461e+00 1.1335540886103018e-04 0.0000000000000000e+00  1.1199358904178196e+00 -1.1354528994830320e-03 0.0000000000000000e+00  1.0731783339289949e+00 8.2307386520658467e-04 0.0000000000000000e+00  1.1194620114943497e+00 1.0231765506992093e-03 0.0000000000000000e+00  9.8116321155483999e-01 -1.3178461371514463e-01 0.0000000000000000e+00  2.3270821566454032e+00 6.8936411523178076e-01 0.0000000000000000e+00  1.0459637161996815e+00 2.0486272276310077e-03 0.0000000000000000e+00  1.0386688258081522e+00 -3.1885740732406219e-03 0.0000000000000000e+00  4.2848729725231899e-01 1.0398472895937130e-01 0.0000000000000000e+00  1.6498074883874065e+00 2.2315140270113659e-01 0.0000000000000000e+00  1.0131528474699640e+00 -2.2514641279917555e-01 0.0000000000000000e+00  1.1037648133887783e+00 -1.2363588914153800e-02 0.0000000000000000e+00  1.0368287403169589e+00 -3.4362763818627526e-03 0.0000000000000000e+00  1.1193110979630487e+00 3.5960494392560431e-04 0.0000000000000000e+00  9.8374994735353494e-01 -1.5248753066491247e-02 0.0000000000000000e+00  1.0524783357312317e+00 3.4094603953282072e-03 0.0000000000000000e+00  1.0350564262191804e+00 -9.6451854000240145e-03 0.0000000000000000e+00  3.3494186484465194e-01 -1.4330580682184002e-01 0.0000000000000000e+00  7.1832007214742122e-01 -9.4563354966164845e-02 0.0000000000000000e+00  1.1351329836393322e+00 7.3467634401877840e-02 0.0000000000000000e+00  1.0415221156854924e+00 -1.5219512693205911e-03 0.0000000000000000e+00  1.2586168893330782e+00 -4.6450515097771727e-01 0.0000000000000000e+00  9.9617840960111992e-01 -7.8590337884654037e-03 0.0000000000000000e+00  1.0825191539107264e+00 1.1637405807988842e-02 0.0000000000000000e+00  1.1119739764480179e+00 -1.4752114854907084e-04