<?xml version="1.0"?>
<VTKFile type="UnstructuredGrid"  version="0.1"  >
<UnstructuredGrid>
<Piece  NumberOfPoints="4269" NumberOfCells="8234">
<Points>
<DataArray  type="Float64"  NumberOfComponents="3"  format="ascii">0 1 0  0 0 0  7.5 0 0  7.5 1 0  1.197537668119028 0.5812868930080463 0  1.2 0.55 0  1.197537668119028 0.5187131069919538 0  1.190211303259031 0.4881966011250105 0  1.178201304837674 0.4592019000520907 0  1.161803398874989 0.4324429495415054 0  1.141421356237309 0.4085786437626905 0  1.117557050458495 0.3881966011250105 0  1.090798099947909 0.3717986951623264 0  1.06180339887499 0.3597886967409693 0  1.031286893008046 0.3524623318809725 0  1 0.35 0  0.9687131069919538 0.3524623318809725 0  0.9381966011250105 0.3597886967409694 0  0.9092019000520906 0.3717986951623264 0  0.8824429495415054 0.3881966011250105 0  0.8585786437626904 0.4085786437626905 0  0.8381966011250105 0.4324429495415054 0  0.8217986951623264 0.4592019000520907 0  0.8097886967409692 0.4881966011250107 0  0.8024623318809725 0.5187131069919539 0  0.8 0.55 0  0.8024623318809725 0.5812868930080463 0  0.8097886967409693 0.6118033988749896 0  0.8217986951623264 0.6407980999479095 0  0.8381966011250105 0.6675570504584947 0  0.8585786437626906 0.6914213562373096 0  0.8824429495415054 0.7118033988749896 0  0.9092019000520907 0.7282013048376736 0  0.9381966011250106 0.7402113032590307 0  0.9687131069919539 0.7475376681190276 0  1 0.75 0  1.031286893008046 0.7475376681190276 0  1.06180339887499 0.7402113032590307 0  1.090798099947909 0.7282013048376736 0  1.117557050458495 0.7118033988749896 0  1.141421356237309 0.6914213562373095 0  1.161803398874989 0.6675570504584947 0  1.178201304837674 0.6407980999479094 0  1.190211303259031 0.6118033988749896 0  3.75 0 0  3.75 1 0  1.875 0 0  1.875 1 0  0.9375 0 0  0.9375 1 0  1.40625 1 0  5.625 1 0  5.625 0 0  2.8125 1 0  2.8125 0 0  4.6875 0 0  4.6875 1 0  6.5625 0 0  6.5625 1 0  5.15625 0.5 0  4.21875 0.5 0  2.34375 0.5 0  3.28125 0.5 0  6.09375 0.5 0  7.5 0.5 0  6.897916666666666 0.5 0  1.842708333333333 0.5 0  0 0.5 0  0.46875 0 0  5.625 0.5302734375 0  7.03125 0 0  6.09375 1 0  2.8125 0.4697265625 0  3.28125 0 0  2.34375 1 0  2.34375 0 0  3.75 0.4697265625 0  4.21875 0 0  4.21875 1 0  4.6875 0.5302734375 0  3.28125 1 0  5.15625 0 0  6.09375 0 0  5.15625 1 0  0.46875 1 0  1.40625 0 0  7.03125 1 0  0.3954638734376499 0.5975780249976004 0  6.495833333333334 0.4072265624999998 0  5.859375 0.25 0  4.905729166666666 0.26513671875 0  4.453125 0.25 0  3.531770833333333 0.73486328125 0  3.968229166666667 0.73486328125 0  2.594270833333333 0.73486328125 0  3.030729166666667 0.73486328125 0  6.328125 0.75 0  7.198958333333334 0.3125000000000002 0  7.198958333333334 0.6874999999999998 0  5.390625 0.25 0  0 0.25 0  2.109375 0.75 0  2.109375 0.25 0  1.51921323205749 0.3418883887525936 0  1.522346610178253 0.6811769608297746 0  5.375456746419271 0.75 0  4.921875 0.76513671875 0  4.437956746419271 0.75 0  3.984375 0.23486328125 0  3.500456746419271 0.25 0  2.578125 0.23486328125 0  3.046875 0.23486328125 0  5.874543253580729 0.75 0  6.642123189445656 0.6909095493086836 0  6.746354166666666 0.2391688368055553 0  0.3197109619185111 0.2850049285972083 0  6.328125 0 0  0.6313375889370429 0.2351325552547357 0  0 0.75 0  6.252283381534729 0.2693808819694041 0  0.234375 1 0  6.948437500000001 0.7543055555555555 0  0.5934018769555939 0.7694151657947577 0  1.858854166666667 0.75 0  1.858854166666667 0.25 0  1.640625 0 0  2.093229166666667 0.5 0  7.5 0.25 0  3.282227579752604 0.75 0  7.5 0.75 0  1.171875 0 0  1.303539853147731 0.2235426933121065 0  5.148177083333333 0.2575683593749998 0  2.351822916666667 0.742431640625 0  1.640625 1 0  4.202380413457425 0.7645435094236485 0  3.047822985053062 0.4701848030090332 0  2.577177014946938 0.4701848030090332 0  4.672792740482199 0.76513671875 0  4.922822985053062 0.5298151969909668 0  5.390593497949761 0.5156244924311331 0  5.610292740482199 0.76513671875 0  3.516602579752604 0.5 0  4.45496853898097 0.4865915990446593 0  5.85753146101903 0.4865915990446593 0  3.749511210123698 0.23486328125 0  3.983397420247396 0.4999999999999999 0  2.343497975411212 0.2346270081980111 0  4.219002024588788 0.2346270081980111 0  0.703125 0 0  2.8125 0.2343755075688669 0  3.046875 0 0  2.578125 0 0  3.515625 0 0  3.984375 0 0  4.453125 1 0  5.390625 1 0  2.109375 0 0  2.109375 1 0  5.625 0.2921402030705575 0  5.390625 0 0  7.265625 0 0  6.796875 0 0  6.328125 1 0  3.046875 1 0  2.578125 1 0  3.984375 1 0  3.515625 1 0  4.453125 0 0  4.921875 0 0  5.859375 0 0  0.703125 1 0  1.171875 1 0  7.265625 1 0  4.921875 1 0  5.859375 1 0  0.234375 0 0  6.796875 1 0  6.980310975276531 0.2285890127127066 0  5.149170481934885 0.772689292163473 0  3.274170481934884 0.2273107078365268 0  6.101334126790364 0.7722468376159667 0  4.678005340872584 0.3000799877067239 0  2.8125 0.6921051326382495 0  3.75 0.6921051326382495 0  0.3515624999999999 0.8134571721668546 0  0.4990405774417521 0.4070099317153735 0  0.1789273931360182 0.625 0  6.31239060814315 0.5298877111157968 0  6.456979773992304 0.1917956348713352 0  6.699870808919271 0.4406293402777773 0  1.337539480965883 0.7944303676599538 0  6.058675797563041 0.2019812164653516 0  0.8203125 0.1643029084422534 0  0.1480856513011711 0.375 0  1.090769294689562 0.1719186776982972 0  7.291088163206459 0.5 0  7.094502414936563 0.5197902199074071 0  0.6046212059042245 0.5730066483871106 0  1.707231580809486 0.6342709161352207 0  1.685961352504593 0.8193269193390785 0  1.374721602852827 0.4600373025865813 0  6.486415510043844 0.5916440776477192 0  1.5234375 0.1508863828685116 0  1.707925830421689 0.3657739208189008 0  0.1674513225045584 0.8278776664019765 0  7.138268756771176 0.1438183366439137 0  7.1484375 0.8616388888888887 0  7.328562530764119 0.819498462930605 0  4.101073710123698 0.3678637200736647 0  1.693878467219965 0.1911955120941053 0  1.577566745468488 0.5110082404081502 0  6.6796875 0.8653871806883484 0  6.498039504430512 0.825568433346395 0  0.7562556668576472 0.8333197949571929 0  4.101045914668806 0.6255195807449272 0  5.030745188395182 0.382829047309028 0  2.476364945868651 0.6095868094762166 0  2.729359843907322 0.8460525663191247 0  2.9296875 0.8740763101564099 0  3.163518307559356 0.6254622797994247 0  3.666859843907322 0.8460525663191247 0  3.8671875 0.8740763101564099 0  4.8046875 0.12592368984359 0  3.14936031382311 0.8606990583876851 0  2.4609375 0.8747622921397776 0  5.023140791101972 0.1392266772452574 0  0 0.125 0  0.1759922923594607 0.1727589856739889 0  4.5703125 0.125 0  7.327755777818006 0.1766156770456191 0  5.5078125 0.125 0  5.719712725029036 0.1460701015352787 0  4.327848962028002 0.3674169956512513 0  5.982681121544351 0.3692637923021713 0  3.398926289876302 0.6245417594909667 0  5.281756792511996 0.3827993367299961 0  2.226822645963271 0.6252438868405666 0  2.234390064317166 0.8676616584526566 0  5.2734375 0.125 0  1.96796875 0.382568359375 0  2.234651037971999 0.3674169956512511 0  1.984114583333333 0.132568359375 0  1.9921875 0.875 0  1.984114583333333 0.632568359375 0  5.748733794462357 0.8678269127183313 0  3.3984375 0.875456329184688 0  1.512925924995415 0.8582958012121853 0  1.359299372802969 0.6275861864990343 0  4.810521420483513 0.4041767793635395 0  0.2996213306116602 0.455339710363317 0  5.999933717403708 0.6388425470751088 0  5.250033449003657 0.6388713364551682 0  3.631676045992918 0.3525406652400928 0  4.3359375 0.8816499670325881 0  4.343577437052484 0.6116511299909198 0  3.375033449003656 0.3611286635448316 0  5.763152151652243 0.6249404690537395 0  4.549347848347757 0.6249404690537396 0  5.5004588702411 0.6403667365776566 0  5.976118394847484 0.8816230218343086 0  5.054722486865804 0.6338007028640954 0  3.164542163493752 0.3520519332736524 0  2.445407482032355 0.3672168403687257 0  4.8046875 0.882568359375 0  4.1015625 0.117431640625 0  2.4609375 0.117431640625 0  2.695556894938151 0.3520510350344335 0  2.929443105061849 0.3520510350344335 0  3.881979231817319 0.3670559016511187 0  3.8671875 0.117431640625 0  4.805389247695744 0.6470047893641744 0  3.399370721942191 0.1184066543556767 0  5.274370721942192 0.881593345644323 0  3.618253274934649 0.1316869186284249 0  2.6953125 0.1171877537844335 0  2.9296875 0.1171877537844335 0  2.21873344389451 0.125 0  4.3359375 0.1171877625080073 0  0.6659898565672709 0.3986593551313873 0  7.363359022954956 0.3481046411219251 0  7.363359022954956 0.6518953588780749 0  5.487719392831826 0.3828237631077121 0  2.695054578344725 0.5809158475691247 0  2.944553877887707 0.5964065668438148 0  0.3515625 0.1201898858097106 0  5.5078125 1 0  4.5703125 1 0  5.031746201297604 0.882568359375 0  3.1640625 0 0  6.2109375 1 0  6.186845385763124 0.6336356480571081 0  4.1015625 1 0  6.810399074069772 0.6495574751396682 0  0.4740615253480797 0.2509287743856873 0  7.052064303830151 0.3684417917792242 0  6.195177069665382 0.1216488332168849 0  5.72300154718324 0.4112068202852788 0  3.879157465495092 0.6111892850691246 0  3.645760045247695 0.5809158475691247 0  6.868257400485771 0.3427840810237202 0  6.612030892260864 0.1521752713064389 0  6.615666885941117 0.3151079644097221 0  4.04296875 0.8633718902669071 0  1.183031453639096 0.8486801864185936 0  6.9140625 0 0  6.859079526500421 0.1398292786950638 0  6.808232443325651 0.7957411753922057 0  6.9140625 1 0  4.544955211100143 0.3675874343205077 0  1.0546875 1 0  6.122060236165557 0.3316791557072867 0  0.5859375 0 0  5.9765625 0 0  5.44921875 0.870984788733638 0  4.51171875 0.870984788733638 0  0.7608354256382215 0.2931261274224557 0  6.386875332239937 0.3156583003094978 0  6.985654756850997 0.6147408423643147 0  6.223797257919172 0.8535621912121121 0  5.936822413218736 0.1338376546337823 0  6.23933008800134 0.4095573603773768 0  0.5414022462152697 0.1305482677949959 0  6.331360438104348 0.1370086318183389 0  0.956404929269873 0.1374266563647954 0  1.2890625 1 0  0.691305981127761 0.6764829884281737 0  3.531251607241209 0.8678916320952239 0  2.59787442813022 
[...]
<PointData  Vectors="f_71627"> 
<DataArray  type="Float64"  Name="f_71627"  NumberOfComponents="3" format="ascii">0.0000000000000000e+00 0.0000000000000000e+00 0.0000000000000000e+00  0.0000000000000000e+00 0.0000000000000000e+00 0.0000000000000000e+00  0.0000000000000000e+00 0.0000000000000000e+00 0.0000000000000000e+00  0.0000000000000000e+00 0.0000000000000000e+00 0.0000000000000000e+00  0.0000000000000000e+00 0.0000000000000000e+00 0.0000000000000000e+00  0.0000000000000000e+00 0.0000000000000000e+00 0.0000000000000000e+00  0.0000000000000000e+00 0.0000000000000000e+00 0.0000000000000000e+00  0.0000000000000000e+00 0.0000000000000000e+00 0.0000000000000000e+00  0.0000000000000000e+00 0.0000000000000000e+00 0.0000000000000000e+00  0.0000000000000000e+00 0.0000000000000000e+00 0.0000000000000000e+00  0.0000000000000000e+00 0.0000000000000000e+00 0.0000000000000000e+00  0.0000000000000000e+00 0.0000000000000000e+00 0.0000000000000000e+00  0.0000000000000000e+00 0.0000000000000000e+00 0.0000000000000000e+00  0.0000000000000000e+00 0.0000000000000000e+00 0.0000000000000000e+00  0.0000000000000000e+00 0.0000000000000000e+00 0.0000000000000000e+00  0.0000000000000000e+00 0.0000000000000000e+00 0.0000000000000000e+00  0.0000000000000000e+00 0.0000000000000000e+00 0.0000000000000000e+00  0.0000000000000000e+00 0.0000000000000000e+00 0.0000000000000000e+00  0.0000000000000000e+00 0.0000000000000000e+00 0.0000000000000000e+00  0.0000000000000000e+00 0.0000000000000000e+00 0.0000000000000000e+00  0.0000000000000000e+00 0.0000000000000000e+00 0.0000000000000000e+00  0.0000000000000000e+00 0.0000000000000000e+00 0.0000000000000000e+00  0.0000000000000000e+00 0.0000000000000000e+00 0.0000000000000000e+00  0.0000000000000000e+00 0.0000000000000000e+00 0.0000000000000000e+00  0.0000000000000000e+00 0.0000000000000000e+00 0.0000000000000000e+00  0.0000000000000000e+00 0.0000000000000000e+00 0.0000000000000000e+00  0.0000000000000000e+00 0.0000000000000000e+00 0.0000000000000000e+00  0.0000000000000000e+00 0.0000000000000000e+00 0.0000000000000000e+00  0.0000000000000000e+00 0.0000000000000000e+00 0.0000000000000000e+00  0.0000000000000000e+00 0.0000000000000000e+00 0.0000000000000000e+00  0.0000000000000000e+00 0.0000000000000000e+00 0.0000000000000000e+00  0.0000000000000000e+00 0.0000000000000000e+00 0.0000000000000000e+00  0.0000000000000000e+00 0.0000000000000000e+00 0.0000000000000000e+00  0.0000000000000000e+00 0.0000000000000000e+00 0.0000000000000000e+00  0.0000000000000000e+00 0.0000000000000000e+00 0.0000000000000000e+00  0.0000000000000000e+00 0.0000000000000000e+00 0.0000000000000000e+00  0.0000000000000000e+00 0.0000000000000000e+00 0.0000000000000000e+00  0.0000000000000000e+00 0.0000000000000000e+00 0.0000000000000000e+00  0.0000000000000000e+00 0.0000000000000000e+00 0.0000000000000000e+00  0.0000000000000000e+00 0.0000000000000000e+00 0.0000000000000000e+00  0.0000000000000000e+00 0.0000000000000000e+00 0.0000000000000000e+00  0.0000000000000000e+00 0.0000000000000000e+00 0.0000000000000000e+00  0.0000000000000000e+00 0.0000000000000000e+00 0.0000000000000000e+00  0.0000000000000000e+00 0.0000000000000000e+00 0.0000000000000000e+00  0.0000000000000000e+00 0.0000000000000000e+00 0.0000000000000000e+00  0.0000000000000000e+00 0.0000000000000000e+00 0.0000000000000000e+00  0.0000000000000000e+00 0.0000000000000000e+00 0.0000000000000000e+00  0.0000000000000000e+00 0.0000000000000000e+00 0.0000000000000000e+00  0.0000000000000000e+00 0.0000000000000000e+00 0.0000000000000000e+00  0.0000000000000000e+00 0.0000000000000000e+00 0.0000000000000000e+00  0.0000000000000000e+00 0.0000000000000000e+00 0.0000000000000000e+00  0.0000000000000000e+00 0.0000000000000000e+00 0.0000000000000000e+00  0.0000000000000000e+00 0.0000000000000000e+00 0.0000000000000000e+00  0.0000000000000000e+00 0.0000000000000000e+00 0.0000000000000000e+00  0.0000000000000000e+00 0.0000000000000000e+00 0.0000000000000000e+00  0.0000000000000000e+00 0.0000000000000000e+00 0.0000000000000000e+00  0.0000000000000000e+00 0.0000000000000000e+00 0.0000000000000000e+00  0.0000000000000000e+00 0.0000000000000000e+00 0.0000000000000000e+00  0.0000000000000000e+00 0.0000000000000000e+00 0.0000000000000000e+00  1.4760888969088961e+00 1.2620254238447035e-01 0.0000000000000000e+00  1.6658707319689607e+00 -9.4095231880713115e-01 0.0000000000000000e+00  1.7113964576069043e+00 -9.8222573493068188e-01 0.0000000000000000e+00  1.6144594555181064e+00 -9.5294853784352185e-01 0.0000000000000000e+00  1.5945947436089847e+00 9.9111423740196392e-01 0.0000000000000000e+00  1.5000002150654907e+00 0.0000000000000000e+00 0.0000000000000000e+00  1.8817802220071702e+00 4.9981024727231838e-01 0.0000000000000000e+00  1.2073900032684646e+00 5.1827066531178512e-01 0.0000000000000000e+00  1.5000002150654907e+00 0.0000000000000000e+00 0.0000000000000000e+00  0.0000000000000000e+00 0.0000000000000000e+00 0.0000000000000000e+00  1.7281248577953758e+00 -5.2539984589424638e-01 0.0000000000000000e+00  0.0000000000000000e+00 0.0000000000000000e+00 0.0000000000000000e+00  0.0000000000000000e+00 0.0000000000000000e+00 0.0000000000000000e+00  1.6197575774962090e+00 1.0652407684082876e+00 0.0000000000000000e+00  0.0000000000000000e+00 0.0000000000000000e+00 0.0000000000000000e+00  0.0000000000000000e+00 0.0000000000000000e+00 0.0000000000000000e+00  0.0000000000000000e+00 0.0000000000000000e+00 0.0000000000000000e+00  1.8944067653039445e+00 1.0832493730934711e+00 0.0000000000000000e+00  0.0000000000000000e+00 0.0000000000000000e+00 0.0000000000000000e+00  0.0000000000000000e+00 0.0000000000000000e+00 0.0000000000000000e+00  1.4816645619147257e+00 3.7874400771043132e-01 0.0000000000000000e+00  0.0000000000000000e+00 0.0000000000000000e+00 0.0000000000000000e+00  0.0000000000000000e+00 0.0000000000000000e+00 0.0000000000000000e+00  0.0000000000000000e+00 0.0000000000000000e+00 0.0000000000000000e+00  0.0000000000000000e+00 0.0000000000000000e+00 0.0000000000000000e+00  0.0000000000000000e+00 0.0000000000000000e+00 0.0000000000000000e+00  0.0000000000000000e+00 0.0000000000000000e+00 0.0000000000000000e+00  0.0000000000000000e+00 0.0000000000000000e+00 0.0000000000000000e+00  1.3674388054494848e+00 -3.6584145095605571e-02 0.0000000000000000e+00  1.5816256043698387e+00 -6.1757402053973609e-01 0.0000000000000000e+00  1.6440966450315051e+00 3.9575636208838544e-01 0.0000000000000000e+00  1.1796540634524628e+00 6.1121740965092053e-01 0.0000000000000000e+00  1.6542663279143357e+00 -5.6057732860355569e-01 0.0000000000000000e+00  1.8443601107550692e-01 5.1806764917885606e-02 0.0000000000000000e+00  8.0959935517489345e-01 5.6767014959690376e-01 0.0000000000000000e+00  1.3443810520720961e-01 6.1428274841245523e-01 0.0000000000000000e+00  1.1576652971326415e+00 -3.1120702306734649e-01 0.0000000000000000e+00  1.3686461848232592e+00 -2.6847617327154966e-01 0.0000000000000000e+00  1.3605931454507807e+00 7.5213105888119069e-01 0.0000000000000000e+00  1.0731821877294976e+00 7.9408690927566039e-01 0.0000000000000000e+00  1.1375696216659177e+00 -4.8701546888569591e-01 0.0000000000000000e+00  1.1250001612991183e+00 0.0000000000000000e+00 0.0000000000000000e+00  7.8795825106743955e-01 -1.8014805600159048e-01 0.0000000000000000e+00  7.5111588479248281e-01 -3.6945620793079648e-01 0.0000000000000000e+00  2.3706090160071831e+00 1.0382897736451027e+00 0.0000000000000000e+00  -4.9910955570575405e-01 -4.4110618828006493e-01 0.0000000000000000e+00  8.4601064437667350e-01 -6.3937568881837015e-01 0.0000000000000000e+00  7.6484705989840507e-01 4.6801822504626539e-01 0.0000000000000000e+00  1.7346580621559310e-01 -5.9801711131430813e-01 0.0000000000000000e+00  9.8118845201767502e-01 6.0129383845497164e-01 0.0000000000000000e+00  1.9349973910783225e+00 -1.5753455415462550e-01 0.0000000000000000e+00  1.8803489071872708e+00 6.0036350607291844e-01 0.0000000000000000e+00  1.1224313206355787e+00 -4.3259395848658283e-01 0.0000000000000000e+00  5.3806238957969776e-01 6.3537670388704048e-01 0.0000000000000000e+00  1.0523621130442795e+00 -7.3406749668297366e-01 0.0000000000000000e+00  1.5509604804593891e+00 -2.2301528786126629e-01 0.0000000000000000e+00  1.2309939253499647e+00 -9.0740656287599419e-02 0.0000000000000000e+00  0.0000000000000000e+00 0.0000000000000000e+00 0.0000000000000000e+00  1.2541328002701275e+00 -3.1844184529853575e-01 0.0000000000000000e+00  1.1250001612991183e+00 0.0000000000000000e+00 0.0000000000000000e+00  8.3993821469100050e-01 1.8837524091262992e-01 0.0000000000000000e+00  0.0000000000000000e+00 0.0000000000000000e+00 0.0000000000000000e+00  5.8655693255495189e-01 9.2954014365114113e-01 0.0000000000000000e+00  1.0382681934707589e+00 1.9486303879014763e-01 0.0000000000000000e+00  1.8061938061193439e+00 -3.4473783367075583e-01 0.0000000000000000e+00  1.0468482795501628e+00 3.0032520991953671e-01 0.0000000000000000e+00  0.0000000000000000e+00 0.0000000000000000e+00 0.0000000000000000e+00  2.1190016630092066e+00 -1.1838136248285824e+00 0.0000000000000000e+00  1.1250001612991183e+00 0.0000000000000000e+00 0.0000000000000000e+00  4.9673144199077635e-01 -7.0309354664435464e-01 0.0000000000000000e+00  1.1250001612991183e+00 0.0000000000000000e+00 0.0000000000000000e+00  0.0000000000000000e+00 0.0000000000000000e+00 0.0000000000000000e+00  2.2698815017285412e+00 1.6392612335138887e-01 0.0000000000000000e+00  1.0450712744903545e+00 1.3839600150218023e-01 0.0000000000000000e+00  -6.1900851920418290e-02 -8.4562951365551342e-01 0.0000000000000000e+00  0.0000000000000000e+00 0.0000000000000000e+00 0.0000000000000000e+00  8.3520571346734673e-01 -4.8661466815734589e-01 0.0000000000000000e+00  1.5010326333580473e+00 -6.2622490765437655e-01 0.0000000000000000e+00  1.8828930236856902e+00 8.3322879562319041e-01 0.0000000000000000e+00  2.8192687263211280e-02 3.4996159789655129e-01 0.0000000000000000e+00  1.5140756032404050e+00 1.1521043873147379e+00 0.0000000000000000e+00  1.5989342132852398e+00 -8.3331524800646783e-01 0.0000000000000000e+00  4.3287540329845470e-01 -3.3782386441272644e-01 0.0000000000000000e+00  1.9668148377928230e+00 -3.2600365964946193e-01 0.0000000000000000e+00  1.6920448106024433e+00 -9.4685607069794875e-01 0.0000000000000000e+00  1.8360975668675126e+00 7.5237580888483702e-01 0.0000000000000000e+00  1.7530798482811094e+00 2.8717839103024501e-01 0.0000000000000000e+00  1.4187324610330361e+00 7.6437538432312790e-01 0.0000000000000000e+00  1.6844440920080124e+00 -7.4604498126009777e-01 0.0000000000000000e+00  9.2209175751317640e-01 -4.1301851024409597e-01 0.0000000000000000e+00  0.0000000000000000e+00 0.0000000000000000e+00 0.0000000000000000e+00  1.1870018022986670e+00 8.5207598485167158e-01 0.0000000000000000e+00  0.0000000000000000e+00 0.0000000000000000e+00 0.0000000000000000e+00  0.0000000000000000e+00 0.0000000000000000e+00 0.0000000000000000e+00  0.0000000000000000e+00 0.0000000000000000e+00 0.0000000000000000e+00  0.0000000000000000e+00 0.0000000000000000e+00 0.0000000000000000e+00  0.0000000000000000e+00 0.0000000000000000e+00 0.0000000000000000e+00  0.0000000000000000e+00 0.0000000000000000e+00 0.0000000000000000e+00  0.0000000000000000e+00 0.0000000000000000e+00 0.0000000000000000e+00  0.0000000000000000e+00 0.0000000000000000e+00 0.0000000000000000e+00  1.7517802527884512e+00 -4.8274623662638894e-01 0.0000000000000000e+00  0.0000000000000000e+00 0.0000000000000000e+00 0.0000000000000000e+00  0.0000000000000000e+00 0.0000000000000000e+00 0.0000000000000000e+00  0.0000000000000000e+00 0.0000000000000000e+00 0.0000000000000000e+00  0.0000000000000000e+00 0.0000000000000000e+00 0.0000000000000000e+00  0.0000000000000000e+00 0.0000000000000000e+00 0.0000000000000000e+00  0.0000000000000000e+00 0.0000000000000000e+00 0.0000000000000000e+00  0.0000000000000000e+00 0.0000000000000000e+00 0.0000000000000000e+00  0.0000000000000000e+00 0.0000000000000000e+00 0.0000000000000000e+00  0.0000000000000000e+00 0.0000000000000000e+00 0.0000000000000000e+00  0.0000000000000000e+00 0.0000000000000000e+00 0.0000000000000000e+00  0.0000000000000000e+00 0.0000000000000000e+00 0.0000000000000000e+00  0.0000000000000000e+00 0.0000000000000000e+00 0.0000000000000000e+00  0.0000000000000000e+00 0.0000000000000000e+00 0.0000000000000000e+00  0.0000000000000000e+00 0.0000000000000000e+00 0.0000000000000000e+00  0.0000000000000000e+00 0.0000000000000000e+00 0.0000000000000000e+00  0.0000000000000000e+00 0.0000000000000000e+00 0.0000000000000000e+00  0.0000000000000000e+00 0.0000000000000000e+00 0.0000000000000000e+00  0.0000000000000000e+00 0.0000000000000000e+00 0.0000000000000000e+00  1.6288875714351989e+00 3.9471091271599412e-01 0.0000000000000000e+00  1.1159703869561675e+00 -3.5789875436824860e-02 0.0000000000000000e+00  1.3437398609567033e+00 -4.4191855815643777e-01 0.0000000000000000e+00  1.0325151295406312e+00 7.0296843821658894e-01 0.0000000000000000e+00  2.0465500530522109e+00 4.8315171021199682e-01 0.0000000000000000e+00  1.1077171646457162e+00 1.0115303505093429e+00 0.0000000000000000e+00  4.1032566526480019e-01 1.1922797081819316e+00 0.0000000000000000e+00  9.0916263864201297e-01 1.5962161538590851e-02 0.0000000000000000e+00  1.3542992214761560e+00 -1.8713676069230573e-01 0.0000000000000000e+00  1.3951055108184194e+00 -1.1228124729097393e-02 0.0000000000000000e+00  1.6817273459152333e+00 -5.7723887388649163e-02 0.0000000000000000e+00  8.0910492280132296e-01 -4.8801073601300693e-01 0.0000000000000000e+00  1.7958216025994236e+00 -5.5761186989059452e-01 0.0000000000000000e+00  1.8960304597002833e+00 -4.8261201194823300e-01 0.0000000000000000e+00  9.0635295469007626e-01 5.1357534040316222e-01 0.0000000000000000e+00  1.4690209555848075e+00 -3.3917005840656833e-01 0.0000000000000000e+00  1.4041323378422572e+00 -2.4051020810350623e-02 0.0000000000000000e+00  2.0138323840732757e+00 -1.0039502052550243e-01 0.0000000000000000e+00  1.5899275854248371e+00 9.0281863946100993e-01 0.0000000000000000e+00  1.6966065657029352e+00 9.9506658825864613e-01 0.0000000000000000e+00  1.1479164568432747e+00 -2.7905548077440372e-03 0.0000000000000000e+00  5.3028536595579268e-01 6.9049768269458689e-01 0.0000000000000000e+00  1.4849855310933653e+00 -3.4567109949328365e-02 0.0000000000000000e+00  4.5869310505161431e-01 -5.6384360944839595e-01 0.0000000000000000e+00  1.6029727942588394e+00 -7.5453254268785996e-01 0.0000000000000000e+00  1.7173150365161247e+00 4.1525638069091375e-01 0.0000000000000000e+00  1.5220556499569797e+00 8.8793941844163582e-01 0.0000000000000000e+00  8.5277169861201729e-01 1.6546411465091012e-03 0.0000000000000000e+00  1.0297101172595853e+00 3.4930788107107391e-01 0.0000000000000000e+00  5.3115486226110176e-01 1.2215727646059127e+00 0.0000000000000000e+00  7.1776944089765804e-01 7.9976171124870332e-01 0.0000000000000000e+00  1.2464594253400614e+00 1.8344510475682857e-01 0.0000000000000000e+00  1.4228483249540986e+00 3.7645975942950505e-01 0.0000000000000000e+00  7.9863731807401450e-01 9.4234677639119557e-01 0.0000000000000000e+00  1.6545581331168585e-01 -1.2582826137983685e-01 0.0000000000000000e+00  6.8747340759118436e-01 -3.8731536318710230e-01 0.0000000000000000e+00  1.1340334795547666e+00 4.1017089980300542e-01 0.0000000000000000e+00  1.5845921911933363e+00 3.6327906921772714e-02 0.0000000000000000e+00  1.5094023928455662e+00 6.3505962897193924e-01 0.0000000000000000e+00  1.1637948784018912e+00 4.4024178093485626e-02 0.0000000000000000e+00  2.5111941716661113e-01 5.1562084945158748e-01 0.0000000000000000e+00  7.7682524665500674e-01 1.2233416537063850e-01 0.0000000000000000e+00  1.2982171293193219e+00 -8.0593521232519094e-01 0.0000000000000000e+00  -3.4984328843313345e-01 4.3999157674288814e-01 0.0000000000000000e+00  3.1925642543070576e-01 3.6641905122945856e-01 0.0000000000000000e+00  9.9124732831117612e-01 2.2003078853579039e-01 0.0000000000000000e+00  4.9700874122129213e-01 -3.2095662266002883e-01 0.0000000000000000e+00  -1.9483406028833505e-01 -1.1877224835020449e-01 0.0000000000000000e+00  5.8898553072208448e-01 2.5391975634402036e-01 0.0000000000000000e+00  6.5625009409115231e-01 0.0000000000000000e+00 0.0000000000000000e+00  8.6351544596414842e-01 -2.7798490776770400e-02 0.0000000000000000e+00  1.3359327416965971e+00 1.3036152541234380e-01 0.0000000000000000e+00  2.9431006083867345e-01 9.4375241437518331e-01 0.0000000000000000e+00  6.8947797214091100e-01 -3.2681807794920514e-01 0.0000000000000000e+00  1.1597325722188838e+00 3.3384072273183733e-02 0.0000000000000000e+00  1.6990303979865549e+00 -1.1160384573180011e+00 0.0000000000000000e+00  1.5809643609290185e+00 9.2993435240438704e-01 0.0000000000000000e+00  9.6646350153498850e-01 -9.7390479486992931e-01 0.0000000000000000e+00  1.6723297839610733e+00 -3.3422042643413036e-01 0.0000000000000000e+00  9.6291784469719488e-01 -9.9238535559632268e-01 0.0000000000000000e+00  4.4113277737900153e-01 -2.1975902288478646e-01 0.0000000000000000e+00  2.8922203937789681e-01 -1.7017023833651718e-01 0.0000000000000000e+00  1.3666460186263705e+00 5.6062380817509516e-01 0.0000000000000000e+00  2.1760761660059074e+00 -1.7464699963288903e+00 0.0000000000000000e+00  4.9840819515698420e-01 3.9028297535784837e-02 0.0000000000000000e+00  5.8546935205113915e-01 8.4831797894801164e-02 0.0000000000000000e+00  1.8988254558097899e+00 -7.2505351772797788e-01 0.0000000000000000e+00  -1.7955875965495119e-01 1.6406954753602981e-01 0.0000000000000000e+00  1.2495743172503300e-01 -3.6747313018839622e-01 0.0000000000000000e+00  1.3576268387744734e+00 -2.5431289248464567e-01 0.0000000000000000e+00  -9.5745311303040748e-01 -7.9504855407378749e-01 0.0000000000000000e+00  2.0402369777981839e+00 1.1351043329805617e+00 0.0000000000000000e+00  1.4582039739732990e+00 -6.6408873012064926e-02 0.0000000000000000e+00  1.2587706949572801e+00 1.1655508233993890e+00 0.0000000000000000e+00  1.4407519800550690e+00 -2.6115178629650565e-01 0.0000000000000000e+00  2.2341166333241049e+00 2.6900379602017371e-01 0.0000000000000000e+00  1.8621116903432713e-01 -1.5789944751384888e-01 0.0000000000000000e+00  1.3488818546027057e+00 -1.0837125439006265e+00 0.0000000000000000e+00  1.9607920597521806e+00 -6.0889188697568497e-01 0.0000000000000000e+00  1.3376831348707909e+00 3.5670535597902592e-01 0.0000000000000000e+00  1.0048067246113583e+00 -5.4899124530748900e-01 0.0000000000000000e+00  1.0891250912402712e+00 -1.0946819336316949e+00 0.0000000000000000e+00  3.9869527786044967e-01 4.8112308523344532e-01 0.0000000000000000e+00  1.3608563406816157e+00 3.9204816372996709e-01 0.0000000000000000e+00  1.4875094914946929e+00 -6.8172126147285406e-01 0.0000000000000000e+00  2.1004755603437189e+00 3.9599467637638414e-02 0.0000000000000000e+00  2.2121894940949288e-01 4.5843152365414330e-01 0.0000000000000000e+00  3.3699870074036409e-01 7.5377078787770176e-03 0.0000000000000000e+00  1.5487144006851394e+00 1.3161667372041921e-01 0.0000000000000000e+00  1.8538355667596447e+00 1.1016739026057474e+00 0.0000000000000000e+00  1.3715411952073346e+00 1.8816666766171009e-01 0.0000000000000000e+00  1.4090246965733997e+00 9.4226436887657994e-01 0.0000000000000000e+00  9.6425238676995628e-01 1.1702760738438567e-01 0.0000000000000000e+00  1.0244679159932406e+00 1.0940265345301186e+00 0.0000000000000000e+00  1.1743508458826397e+00 -7.6322015702980722e-02 0.0000000000000000e+00  8.6412356721324102e-01 -5.0823154657868415e-02 0.0000000000000000e+00  1.4475227748769839e+00 7.6784855904542149e-02 0.0000000000000000e+00  9.0447172827800315e-01 1.2404327839083484e-01 0.0000000000000000e+00  3.5082183009427959e-01 1.6386567075637035e-01 0.0000000000000000e+00  6.1575994992678196e-01 -4.3456288711922703e-01 0.0000000000000000e+00  6.8782139262855513e-01 -4.3144210349432727e-01 0.0000000000000000e+00  1.2320036811081403e+00 -4.3516916907909253e-01 0.0000000000000000e+00  1.5416163269765997e+00 6.8696006453672032e-01 0.0000000000000000e+00  1.5031117243575767e+00 9.0006958781766089e-01 0.0000000000000000e+00  1.8854721766498377e+00 -8.7035961320671740e-01 0.00000000000