<?xml version="1.0"?>
<VTKFile type="UnstructuredGrid"  version="0.1"  >
<UnstructuredGrid>
<Piece  NumberOfPoints="4269" NumberOfCells="8234">
<Points>
<DataArray  type="Float64"  NumberOfComponents="3"  format="ascii">0 1 0  0 0 0  7.5 0 0  7.5 1 0  1.197537668119028 0.5812868930080463 0  1.2 0.55 0  1.197537668119028 0.5187131069919538 0  1.190211303259031 0.4881966011250105 0  1.178201304837674 0.4592019000520907 0  1.161803398874989 0.4324429495415054 0  1.141421356237309 0.4085786437626905 0  1.117557050458495 0.3881966011250105 0  1.090798099947909 0.3717986951623264 0  1.06180339887499 0.3597886967409693 0  1.031286893008046 0.3524623318809725 0  1 0.35 0  0.9687131069919538 0.3524623318809725 0  0.9381966011250105 0.3597886967409694 0  0.9092019000520906 0.3717986951623264 0  0.8824429495415054 0.3881966011250105 0  0.8585786437626904 0.4085786437626905 0  0.8381966011250105 0.4324429495415054 0  0.8217986951623264 0.4592019000520907 0  0.8097886967409692 0.4881966011250107 0  0.8024623318809725 0.5187131069919539 0  0.8 0.55 0  0.8024623318809725 0.5812868930080463 0  0.8097886967409693 0.6118033988749896 0  0.8217986951623264 0.6407980999479095 0  0.8381966011250105 0.6675570504584947 0  0.8585786437626906 0.6914213562373096 0  0.8824429495415054 0.7118033988749896 0  0.9092019000520907 0.7282013048376736 0  0.9381966011250106 0.7402113032590307 0  0.9687131069919539 0.7475376681190276 0  1 0.75 0  1.031286893008046 0.7475376681190276 0  1.06180339887499 0.7402113032590307 0  1.090798099947909 0.7282013048376736 0  1.117557050458495 0.7118033988749896 0  1.141421356237309 0.6914213562373095 0  1.161803398874989 0.6675570504584947 0  1.178201304837674 0.6407980999479094 0  1.190211303259031 0.6118033988749896 0  3.75 0 0  3.75 1 0  1.875 0 0  1.875 1 0  0.9375 0 0  0.9375 1 0  1.40625 1 0  5.625 1 0  5.625 0 0  2.8125 1 0  2.8125 0 0  4.6875 0 0  4.6875 1 0  6.5625 0 0  6.5625 1 0  5.15625 0.5 0  4.21875 0.5 0  2.34375 0.5 0  3.28125 0.5 0  6.09375 0.5 0  7.5 0.5 0  6.897916666666666 0.5 0  1.842708333333333 0.5 0  0 0.5 0  0.46875 0 0  5.625 0.5302734375 0  7.03125 0 0  6.09375 1 0  2.8125 0.4697265625 0  3.28125 0 0  2.34375 1 0  2.34375 0 0  3.75 0.4697265625 0  4.21875 0 0  4.21875 1 0  4.6875 0.5302734375 0  3.28125 1 0  5.15625 0 0  6.09375 0 0  5.15625 1 0  0.46875 1 0  1.40625 0 0  7.03125 1 0  0.3954638734376499 0.5975780249976004 0  6.495833333333334 0.4072265624999998 0  5.859375 0.25 0  4.905729166666666 0.26513671875 0  4.453125 0.25 0  3.531770833333333 0.73486328125 0  3.968229166666667 0.73486328125 0  2.594270833333333 0.73486328125 0  3.030729166666667 0.73486328125 0  6.328125 0.75 0  7.198958333333334 0.3125000000000002 0  7.198958333333334 0.6874999999999998 0  5.390625 0.25 0  0 0.25 0  2.109375 0.75 0  2.109375 0.25 0  1.51921323205749 0.3418883887525936 0  1.522346610178253 0.6811769608297746 0  5.375456746419271 0.75 0  4.921875 0.76513671875 0  4.437956746419271 0.75 0  3.984375 0.23486328125 0  3.500456746419271 0.25 0  2.578125 0.23486328125 0  3.046875 0.23486328125 0  5.874543253580729 0.75 0  6.642123189445656 0.6909095493086836 0  6.746354166666666 0.2391688368055553 0  0.3197109619185111 0.2850049285972083 0  6.328125 0 0  0.6313375889370429 0.2351325552547357 0  0 0.75 0  6.252283381534729 0.2693808819694041 0  0.234375 1 0  6.948437500000001 0.7543055555555555 0  0.5934018769555939 0.7694151657947577 0  1.858854166666667 0.75 0  1.858854166666667 0.25 0  1.640625 0 0  2.093229166666667 0.5 0  7.5 0.25 0  3.282227579752604 0.75 0  7.5 0.75 0  1.171875 0 0  1.303539853147731 0.2235426933121065 0  5.148177083333333 0.2575683593749998 0  2.351822916666667 0.742431640625 0  1.640625 1 0  4.202380413457425 0.7645435094236485 0  3.047822985053062 0.4701848030090332 0  2.577177014946938 0.4701848030090332 0  4.672792740482199 0.76513671875 0  4.922822985053062 0.5298151969909668 0  5.390593497949761 0.5156244924311331 0  5.610292740482199 0.76513671875 0  3.516602579752604 0.5 0  4.45496853898097 0.4865915990446593 0  5.85753146101903 0.4865915990446593 0  3.749511210123698 0.23486328125 0  3.983397420247396 0.4999999999999999 0  2.343497975411212 0.2346270081980111 0  4.219002024588788 0.2346270081980111 0  0.703125 0 0  2.8125 0.2343755075688669 0  3.046875 0 0  2.578125 0 0  3.515625 0 0  3.984375 0 0  4.453125 1 0  5.390625 1 0  2.109375 0 0  2.109375 1 0  5.625 0.2921402030705575 0  5.390625 0 0  7.265625 0 0  6.796875 0 0  6.328125 1 0  3.046875 1 0  2.578125 1 0  3.984375 1 0  3.515625 1 0  4.453125 0 0  4.921875 0 0  5.859375 0 0  0.703125 1 0  1.171875 1 0  7.265625 1 0  4.921875 1 0  5.859375 1 0  0.234375 0 0  6.796875 1 0  6.980310975276531 0.2285890127127066 0  5.149170481934885 0.772689292163473 0  3.274170481934884 0.2273107078365268 0  6.101334126790364 0.7722468376159667 0  4.678005340872584 0.3000799877067239 0  2.8125 0.6921051326382495 0  3.75 0.6921051326382495 0  0.3515624999999999 0.8134571721668546 0  0.4990405774417521 0.4070099317153735 0  0.1789273931360182 0.625 0  6.31239060814315 0.5298877111157968 0  6.456979773992304 0.1917956348713352 0  6.699870808919271 0.4406293402777773 0  1.337539480965883 0.7944303676599538 0  6.058675797563041 0.2019812164653516 0  0.8203125 0.1643029084422534 0  0.1480856513011711 0.375 0  1.090769294689562 0.1719186776982972 0  7.291088163206459 0.5 0  7.094502414936563 0.5197902199074071 0  0.6046212059042245 0.5730066483871106 0  1.707231580809486 0.6342709161352207 0  1.685961352504593 0.8193269193390785 0  1.374721602852827 0.4600373025865813 0  6.486415510043844 0.5916440776477192 0  1.5234375 0.1508863828685116 0  1.707925830421689 0.3657739208189008 0  0.1674513225045584 0.8278776664019765 0  7.138268756771176 0.1438183366439137 0  7.1484375 0.8616388888888887 0  7.328562530764119 0.819498462930605 0  4.101073710123698 0.3678637200736647 0  1.693878467219965 0.1911955120941053 0  1.577566745468488 0.5110082404081502 0  6.6796875 0.8653871806883484 0  6.498039504430512 0.825568433346395 0  0.7562556668576472 0.8333197949571929 0  4.101045914668806 0.6255195807449272 0  5.030745188395182 0.382829047309028 0  2.476364945868651 0.6095868094762166 0  2.729359843907322 0.8460525663191247 0  2.9296875 0.8740763101564099 0  3.163518307559356 0.6254622797994247 0  3.666859843907322 0.8460525663191247 0  3.8671875 0.8740763101564099 0  4.8046875 0.12592368984359 0  3.14936031382311 0.8606990583876851 0  2.4609375 0.8747622921397776 0  5.023140791101972 0.1392266772452574 0  0 0.125 0  0.1759922923594607 0.1727589856739889 0  4.5703125 0.125 0  7.327755777818006 0.1766156770456191 0  5.5078125 0.125 0  5.719712725029036 0.1460701015352787 0  4.327848962028002 0.3674169956512513 0  5.982681121544351 0.3692637923021713 0  3.398926289876302 0.6245417594909667 0  5.281756792511996 0.3827993367299961 0  2.226822645963271 0.6252438868405666 0  2.234390064317166 0.8676616584526566 0  5.2734375 0.125 0  1.96796875 0.382568359375 0  2.234651037971999 0.3674169956512511 0  1.984114583333333 0.132568359375 0  1.9921875 0.875 0  1.984114583333333 0.632568359375 0  5.748733794462357 0.8678269127183313 0  3.3984375 0.875456329184688 0  1.512925924995415 0.8582958012121853 0  1.359299372802969 0.6275861864990343 0  4.810521420483513 0.4041767793635395 0  0.2996213306116602 0.455339710363317 0  5.999933717403708 0.6388425470751088 0  5.250033449003657 0.6388713364551682 0  3.631676045992918 0.3525406652400928 0  4.3359375 0.8816499670325881 0  4.343577437052484 0.6116511299909198 0  3.375033449003656 0.3611286635448316 0  5.763152151652243 0.6249404690537395 0  4.549347848347757 0.6249404690537396 0  5.5004588702411 0.6403667365776566 0  5.976118394847484 0.8816230218343086 0  5.054722486865804 0.6338007028640954 0  3.164542163493752 0.3520519332736524 0  2.445407482032355 0.3672168403687257 0  4.8046875 0.882568359375 0  4.1015625 0.117431640625 0  2.4609375 0.117431640625 0  2.695556894938151 0.3520510350344335 0  2.929443105061849 0.3520510350344335 0  3.881979231817319 0.3670559016511187 0  3.8671875 0.117431640625 0  4.805389247695744 0.6470047893641744 0  3.399370721942191 0.1184066543556767 0  5.274370721942192 0.881593345644323 0  3.618253274934649 0.1316869186284249 0  2.6953125 0.1171877537844335 0  2.9296875 0.1171877537844335 0  2.21873344389451 0.125 0  4.3359375 0.1171877625080073 0  0.6659898565672709 0.3986593551313873 0  7.363359022954956 0.3481046411219251 0  7.363359022954956 0.6518953588780749 0  5.487719392831826 0.3828237631077121 0  2.695054578344725 0.5809158475691247 0  2.944553877887707 0.5964065668438148 0  0.3515625 0.1201898858097106 0  5.5078125 1 0  4.5703125 1 0  5.031746201297604 0.882568359375 0  3.1640625 0 0  6.2109375 1 0  6.186845385763124 0.6336356480571081 0  4.1015625 1 0  6.810399074069772 0.6495574751396682 0  0.4740615253480797 0.2509287743856873 0  7.052064303830151 0.3684417917792242 0  6.195177069665382 0.1216488332168849 0  5.72300154718324 0.4112068202852788 0  3.879157465495092 0.6111892850691246 0  3.645760045247695 0.5809158475691247 0  6.868257400485771 0.3427840810237202 0  6.612030892260864 0.1521752713064389 0  6.615666885941117 0.3151079644097221 0  4.04296875 0.8633718902669071 0  1.183031453639096 0.8486801864185936 0  6.9140625 0 0  6.859079526500421 0.1398292786950638 0  6.808232443325651 0.7957411753922057 0  6.9140625 1 0  4.544955211100143 0.3675874343205077 0  1.0546875 1 0  6.122060236165557 0.3316791557072867 0  0.5859375 0 0  5.9765625 0 0  5.44921875 0.870984788733638 0  4.51171875 0.870984788733638 0  0.7608354256382215 0.2931261274224557 0  6.386875332239937 0.3156583003094978 0  6.985654756850997 0.6147408423643147 0  6.223797257919172 0.8535621912121121 0  5.936822413218736 0.1338376546337823 0  6.23933008800134 0.4095573603773768 0  0.5414022462152697 0.1305482677949959 0  6.331360438104348 0.1370086318183389 0  0.956404929269873 0.1374266563647954 0  1.2890625 1 0  0.691305981127761 0.6764829884281737 0  3.531251607241209 0.8678916320952239 0  2.59787442813022 
[...]
<PointData  Vectors="f_71627"> 
<DataArray  type="Float64"  Name="f_71627"  NumberOfComponents="3" format="ascii">0.0000000000000000e+00 0.0000000000000000e+00 0.0000000000000000e+00  0.0000000000000000e+00 0.0000000000000000e+00 0.0000000000000000e+00  0.0000000000000000e+00 0.0000000000000000e+00 0.0000000000000000e+00  0.0000000000000000e+00 0.0000000000000000e+00 0.0000000000000000e+00  0.0000000000000000e+00 0.0000000000000000e+00 0.0000000000000000e+00  0.0000000000000000e+00 0.0000000000000000e+00 0.0000000000000000e+00  0.0000000000000000e+00 0.0000000000000000e+00 0.0000000000000000e+00  0.0000000000000000e+00 0.0000000000000000e+00 0.0000000000000000e+00  0.0000000000000000e+00 0.0000000000000000e+00 0.0000000000000000e+00  0.0000000000000000e+00 0.0000000000000000e+00 0.0000000000000000e+00  0.0000000000000000e+00 0.0000000000000000e+00 0.0000000000000000e+00  0.0000000000000000e+00 0.0000000000000000e+00 0.0000000000000000e+00  0.0000000000000000e+00 0.0000000000000000e+00 0.0000000000000000e+00  0.0000000000000000e+00 0.0000000000000000e+00 0.0000000000000000e+00  0.0000000000000000e+00 0.0000000000000000e+00 0.0000000000000000e+00  0.0000000000000000e+00 0.0000000000000000e+00 0.0000000000000000e+00  0.0000000000000000e+00 0.0000000000000000e+00 0.0000000000000000e+00  0.0000000000000000e+00 0.0000000000000000e+00 0.0000000000000000e+00  0.0000000000000000e+00 0.0000000000000000e+00 0.0000000000000000e+00  0.0000000000000000e+00 0.0000000000000000e+00 0.0000000000000000e+00  0.0000000000000000e+00 0.0000000000000000e+00 0.0000000000000000e+00  0.0000000000000000e+00 0.0000000000000000e+00 0.0000000000000000e+00  0.0000000000000000e+00 0.0000000000000000e+00 0.0000000000000000e+00  0.0000000000000000e+00 0.0000000000000000e+00 0.0000000000000000e+00  0.0000000000000000e+00 0.0000000000000000e+00 0.0000000000000000e+00  0.0000000000000000e+00 0.0000000000000000e+00 0.0000000000000000e+00  0.0000000000000000e+00 0.0000000000000000e+00 0.0000000000000000e+00  0.0000000000000000e+00 0.0000000000000000e+00 0.0000000000000000e+00  0.0000000000000000e+00 0.0000000000000000e+00 0.0000000000000000e+00  0.0000000000000000e+00 0.0000000000000000e+00 0.0000000000000000e+00  0.0000000000000000e+00 0.0000000000000000e+00 0.0000000000000000e+00  0.0000000000000000e+00 0.0000000000000000e+00 0.0000000000000000e+00  0.0000000000000000e+00 0.0000000000000000e+00 0.0000000000000000e+00  0.0000000000000000e+00 0.0000000000000000e+00 0.0000000000000000e+00  0.0000000000000000e+00 0.0000000000000000e+00 0.0000000000000000e+00  0.0000000000000000e+00 0.0000000000000000e+00 0.0000000000000000e+00  0.0000000000000000e+00 0.0000000000000000e+00 0.0000000000000000e+00  0.0000000000000000e+00 0.0000000000000000e+00 0.0000000000000000e+00  0.0000000000000000e+00 0.0000000000000000e+00 0.0000000000000000e+00  0.0000000000000000e+00 0.0000000000000000e+00 0.0000000000000000e+00  0.0000000000000000e+00 0.0000000000000000e+00 0.0000000000000000e+00  0.0000000000000000e+00 0.0000000000000000e+00 0.0000000000000000e+00  0.0000000000000000e+00 0.0000000000000000e+00 0.0000000000000000e+00  0.0000000000000000e+00 0.0000000000000000e+00 0.0000000000000000e+00  0.0000000000000000e+00 0.0000000000000000e+00 0.0000000000000000e+00  0.0000000000000000e+00 0.0000000000000000e+00 0.0000000000000000e+00  0.0000000000000000e+00 0.0000000000000000e+00 0.0000000000000000e+00  0.0000000000000000e+00 0.0000000000000000e+00 0.0000000000000000e+00  0.0000000000000000e+00 0.0000000000000000e+00 0.0000000000000000e+00  0.0000000000000000e+00 0.0000000000000000e+00 0.0000000000000000e+00  0.0000000000000000e+00 0.0000000000000000e+00 0.0000000000000000e+00  0.0000000000000000e+00 0.0000000000000000e+00 0.0000000000000000e+00  0.0000000000000000e+00 0.0000000000000000e+00 0.0000000000000000e+00  0.0000000000000000e+00 0.0000000000000000e+00 0.0000000000000000e+00  0.0000000000000000e+00 0.0000000000000000e+00 0.0000000000000000e+00  0.0000000000000000e+00 0.0000000000000000e+00 0.0000000000000000e+00  0.0000000000000000e+00 0.0000000000000000e+00 0.0000000000000000e+00  0.0000000000000000e+00 0.0000000000000000e+00 0.0000000000000000e+00  0.0000000000000000e+00 0.0000000000000000e+00 0.0000000000000000e+00  1.9419399083977420e+00 -8.4836412681058981e-01 0.0000000000000000e+00  1.8443166296986686e+00 7.2238718646662914e-01 0.0000000000000000e+00  1.6003509061773120e+00 1.0265293242848492e+00 0.0000000000000000e+00  1.8218126566139170e+00 1.0535335569674809e+00 0.0000000000000000e+00  1.5968992509048281e+00 -7.4990322233256512e-01 0.0000000000000000e+00  1.5000002293422077e+00 0.0000000000000000e+00 0.0000000000000000e+00  1.3273617201675594e+00 5.5978318022840101e-01 0.0000000000000000e+00  1.3955395144722169e+00 -1.2278179443722612e+00 0.0000000000000000e+00  1.5000002293422077e+00 0.0000000000000000e+00 0.0000000000000000e+00  0.0000000000000000e+00 0.0000000000000000e+00 0.0000000000000000e+00  1.5762086580547254e+00 9.9919612673482949e-01 0.0000000000000000e+00  0.0000000000000000e+00 0.0000000000000000e+00 0.0000000000000000e+00  0.0000000000000000e+00 0.0000000000000000e+00 0.0000000000000000e+00  1.8309031429733174e+00 -9.6553250336649799e-01 0.0000000000000000e+00  0.0000000000000000e+00 0.0000000000000000e+00 0.0000000000000000e+00  0.0000000000000000e+00 0.0000000000000000e+00 0.0000000000000000e+00  0.0000000000000000e+00 0.0000000000000000e+00 0.0000000000000000e+00  1.5673856883580140e+00 -7.6219734922121407e-01 0.0000000000000000e+00  0.0000000000000000e+00 0.0000000000000000e+00 0.0000000000000000e+00  0.0000000000000000e+00 0.0000000000000000e+00 0.0000000000000000e+00  1.6505445784697781e+00 4.0660463732554464e-01 0.0000000000000000e+00  0.0000000000000000e+00 0.0000000000000000e+00 0.0000000000000000e+00  0.0000000000000000e+00 0.0000000000000000e+00 0.0000000000000000e+00  0.0000000000000000e+00 0.0000000000000000e+00 0.0000000000000000e+00  0.0000000000000000e+00 0.0000000000000000e+00 0.0000000000000000e+00  0.0000000000000000e+00 0.0000000000000000e+00 0.0000000000000000e+00  0.0000000000000000e+00 0.0000000000000000e+00 0.0000000000000000e+00  0.0000000000000000e+00 0.0000000000000000e+00 0.0000000000000000e+00  1.3626850214846413e+00 -1.0972367650036350e-02 0.0000000000000000e+00  1.8437008282096674e+00 1.2318045247017394e-01 0.0000000000000000e+00  8.4288340490411662e-01 -2.1460704465240477e-01 0.0000000000000000e+00  1.2090931330886567e+00 -4.1195997433065101e-01 0.0000000000000000e+00  1.3545213020518596e+00 4.5511960369064763e-01 0.0000000000000000e+00  7.4912402813214385e-01 4.6117731014167584e-01 0.0000000000000000e+00  3.8666438031272071e-01 -9.6333994944045553e-01 0.0000000000000000e+00  1.2534108608838017e+00 -3.1245395921995800e-01 0.0000000000000000e+00  5.6181296278428966e-02 -4.7078579120687858e-01 0.0000000000000000e+00  5.0541277876943425e-01 -5.0311937147760022e-01 0.0000000000000000e+00  9.7651738983876180e-01 -7.2286216709003126e-01 0.0000000000000000e+00  9.2707998268185865e-01 -6.9019343503191477e-01 0.0000000000000000e+00  1.6316510253766980e+00 3.6394905482800588e-01 0.0000000000000000e+00  1.1250001720066556e+00 0.0000000000000000e+00 0.0000000000000000e+00  -2.3163657829612641e-01 4.6137341960563161e-01 0.0000000000000000e+00  2.3098009982346808e+00 7.9959829350112321e-01 0.0000000000000000e+00  7.5508930164112731e-01 6.2004816787783701e-01 0.0000000000000000e+00  1.8789007387585621e+00 -7.5995474331588542e-01 0.0000000000000000e+00  4.2683268323807333e-01 5.3468319964997624e-01 0.0000000000000000e+00  8.3287448612275627e-01 -6.6353831864504620e-01 0.0000000000000000e+00  6.1472057900843380e-01 6.2799587622724762e-01 0.0000000000000000e+00  1.5663587299058475e+00 -8.7360704197763961e-01 0.0000000000000000e+00  9.3656040901912796e-01 4.3948150256309154e-01 0.0000000000000000e+00  1.3533343545454883e+00 2.5537929580745805e-01 0.0000000000000000e+00  1.7878915060549094e+00 -5.4951095694466312e-01 0.0000000000000000e+00  1.4669621984226944e+00 -2.6679974103638393e-01 0.0000000000000000e+00  9.1872059485835800e-01 7.0395342326477350e-01 0.0000000000000000e+00  1.0693279450947477e+00 3.9218172804223478e-01 0.0000000000000000e+00  1.2314837788825963e+00 -7.5023161298483451e-02 0.0000000000000000e+00  0.0000000000000000e+00 0.0000000000000000e+00 0.0000000000000000e+00  1.2365670899575925e+00 -2.8651483635177544e-01 0.0000000000000000e+00  1.1250001720066556e+00 0.0000000000000000e+00 0.0000000000000000e+00  1.4066069847965239e+00 -5.4050962641721967e-01 0.0000000000000000e+00  0.0000000000000000e+00 0.0000000000000000e+00 0.0000000000000000e+00  1.1910657076669753e+00 2.9983008877664385e-01 0.0000000000000000e+00  1.0534693726621771e+00 2.2572699137801103e-01 0.0000000000000000e+00  5.9369272540602669e-01 -1.2074384035419840e-01 0.0000000000000000e+00  1.3042796464749129e+00 -4.1226346075221981e-01 0.0000000000000000e+00  0.0000000000000000e+00 0.0000000000000000e+00 0.0000000000000000e+00  1.5362953995066011e+00 2.0900249481186256e-01 0.0000000000000000e+00  1.1250001720066556e+00 0.0000000000000000e+00 0.0000000000000000e+00  -3.3867693706920346e-02 8.7732943320413803e-01 0.0000000000000000e+00  1.1250001720066556e+00 0.0000000000000000e+00 0.0000000000000000e+00  0.0000000000000000e+00 0.0000000000000000e+00 0.0000000000000000e+00  1.8840995472476318e+00 3.7661010356119862e-01 0.0000000000000000e+00  1.5141053417917794e+00 -6.7363899384510673e-01 0.0000000000000000e+00  8.7221253399764376e-01 4.8310802350606336e-01 0.0000000000000000e+00  0.0000000000000000e+00 0.0000000000000000e+00 0.0000000000000000e+00  2.3684180541403022e-01 3.5318555061413537e-01 0.0000000000000000e+00  2.1344072721707628e+00 -7.5600446178927372e-01 0.0000000000000000e+00  1.5160147081807798e+00 -1.4513056184189682e-01 0.0000000000000000e+00  1.0396075443959112e+00 1.9753020068051552e-01 0.0000000000000000e+00  1.7006279131244615e+00 -7.6978150832971171e-01 0.0000000000000000e+00  1.7454858618932643e+00 6.5416315639899159e-01 0.0000000000000000e+00  8.4124197353209584e-01 5.9241724808140450e-01 0.0000000000000000e+00  1.6791437861412080e+00 9.9370886949593595e-01 0.0000000000000000e+00  1.6181668816933354e+00 8.7104186132621153e-01 0.0000000000000000e+00  1.6579962086378135e+00 -9.8939383165435768e-02 0.0000000000000000e+00  9.5737466080711753e-01 -4.0396941512530787e-01 0.0000000000000000e+00  1.7332413683501797e+00 -1.2678241032201929e+00 0.0000000000000000e+00  9.4856451456128332e-01 2.2732479355788712e-01 0.0000000000000000e+00  1.9712185997258171e+00 2.2388387949280364e-01 0.0000000000000000e+00  0.0000000000000000e+00 0.0000000000000000e+00 0.0000000000000000e+00  1.6697330534726924e+00 -7.4982716601118671e-01 0.0000000000000000e+00  0.0000000000000000e+00 0.0000000000000000e+00 0.0000000000000000e+00  0.0000000000000000e+00 0.0000000000000000e+00 0.0000000000000000e+00  0.0000000000000000e+00 0.0000000000000000e+00 0.0000000000000000e+00  0.0000000000000000e+00 0.0000000000000000e+00 0.0000000000000000e+00  0.0000000000000000e+00 0.0000000000000000e+00 0.0000000000000000e+00  0.0000000000000000e+00 0.0000000000000000e+00 0.0000000000000000e+00  0.0000000000000000e+00 0.0000000000000000e+00 0.0000000000000000e+00  0.0000000000000000e+00 0.0000000000000000e+00 0.0000000000000000e+00  1.1321503381320757e+00 7.2142926472750490e-01 0.0000000000000000e+00  0.0000000000000000e+00 0.0000000000000000e+00 0.0000000000000000e+00  0.0000000000000000e+00 0.0000000000000000e+00 0.0000000000000000e+00  0.0000000000000000e+00 0.0000000000000000e+00 0.0000000000000000e+00  0.0000000000000000e+00 0.0000000000000000e+00 0.0000000000000000e+00  0.0000000000000000e+00 0.0000000000000000e+00 0.0000000000000000e+00  0.0000000000000000e+00 0.0000000000000000e+00 0.0000000000000000e+00  0.0000000000000000e+00 0.0000000000000000e+00 0.0000000000000000e+00  0.0000000000000000e+00 0.0000000000000000e+00 0.0000000000000000e+00  0.0000000000000000e+00 0.0000000000000000e+00 0.0000000000000000e+00  0.0000000000000000e+00 0.0000000000000000e+00 0.0000000000000000e+00  0.0000000000000000e+00 0.0000000000000000e+00 0.0000000000000000e+00  0.0000000000000000e+00 0.0000000000000000e+00 0.0000000000000000e+00  0.0000000000000000e+00 0.0000000000000000e+00 0.0000000000000000e+00  0.0000000000000000e+00 0.0000000000000000e+00 0.0000000000000000e+00  0.0000000000000000e+00 0.0000000000000000e+00 0.0000000000000000e+00  0.0000000000000000e+00 0.0000000000000000e+00 0.0000000000000000e+00  0.0000000000000000e+00 0.0000000000000000e+00 0.0000000000000000e+00  0.0000000000000000e+00 0.0000000000000000e+00 0.0000000000000000e+00  7.6330557551176559e-01 1.1606781651313061e-01 0.0000000000000000e+00  4.0455655624239156e-01 -4.0835263995937948e-01 0.0000000000000000e+00  1.6755249694251819e+00 5.3730399304884302e-01 0.0000000000000000e+00  8.3350542034354691e-01 -5.5534421789868749e-01 0.0000000000000000e+00  1.1231233455484610e+00 5.6100755627948395e-01 0.0000000000000000e+00  9.5860308593188148e-01 -8.0290721057348236e-01 0.0000000000000000e+00  1.0989925746390441e+00 -4.5494045179309528e-01 0.0000000000000000e+00  9.0574893151761915e-01 3.2886784604321963e-02 0.0000000000000000e+00  1.3539783870710551e+00 -1.4759996958817240e-01 0.0000000000000000e+00  1.3928710642128255e+00 -1.6776081666926745e-02 0.0000000000000000e+00  1.6513611980267051e+00 -6.7109437147872808e-01 0.0000000000000000e+00  1.2758335442282678e+00 -3.5761710266816751e-02 0.0000000000000000e+00  1.6859692666636270e+00 7.5788558922225679e-01 0.0000000000000000e+00  2.2294186162370599e+00 -3.0907590631063547e-01 0.0000000000000000e+00  7.9863045584111580e-01 -4.2332118394846335e-01 0.0000000000000000e+00  1.4173900161678701e+00 -3.1984856180965293e-01 0.0000000000000000e+00  1.4042596488459727e+00 -3.2416908559908704e-02 0.0000000000000000e+00  1.8908051388877012e+00 -1.8323527225783631e-02 0.0000000000000000e+00  1.3515269128571230e+00 -4.6902632240728542e-01 0.0000000000000000e+00  1.4873810150871094e+00 -2.8167374003315121e-01 0.0000000000000000e+00  1.1475789066334725e+00 3.8630594723096573e-02 0.0000000000000000e+00  1.8618647317414558e+00 -1.4539467745751760e+00 0.0000000000000000e+00  9.3697849614122297e-01 -6.4384368671327452e-01 0.0000000000000000e+00  -5.0730735691263384e-01 1.1652071607573173e+00 0.0000000000000000e+00  1.4659340582214093e+00 9.4407002631119952e-02 0.0000000000000000e+00  1.2590097671013749e+00 8.4210021935676879e-02 0.0000000000000000e+00  4.9294779858663385e-01 -9.9994546668343731e-01 0.0000000000000000e+00  8.5180312886841614e-01 -2.6766302422734246e-03 0.0000000000000000e+00  2.3670853720169302e-01 -1.8256409943135493e-01 0.0000000000000000e+00  4.4699901431481476e-01 -2.0744424926725819e-01 0.0000000000000000e+00  1.0609138244892044e-01 -6.1942904514900576e-01 0.0000000000000000e+00  2.1067478296727358e+00 -2.8688835843811678e-01 0.0000000000000000e+00  1.3692824868487665e+00 -3.1218309491469054e-01 0.0000000000000000e+00  6.6627491068816314e-01 -1.5023931967483395e-01 0.0000000000000000e+00  3.0991325841755629e-01 4.8817304200312750e-01 0.0000000000000000e+00  1.7736747957017032e-01 2.1565445729241639e-01 0.0000000000000000e+00  1.1789346635606792e+00 4.2364652554419130e-01 0.0000000000000000e+00  8.5000145778902003e-01 -8.5088665588863494e-02 0.0000000000000000e+00  1.7943335036120505e+00 -9.8230904735972435e-01 0.0000000000000000e+00  1.3520297970166721e+00 2.1869984017873134e-01 0.0000000000000000e+00  5.2985102693520358e-01 -2.7027545107861040e-01 0.0000000000000000e+00  3.0245652711584376e-03 -2.5759281279789548e-01 0.0000000000000000e+00  5.8899037627857309e-01 1.5928861282187953e-01 0.0000000000000000e+00  9.3506338867116623e-01 -1.2356839346142354e-01 0.0000000000000000e+00  5.1556387366861911e-01 -2.6342769370559854e-01 0.0000000000000000e+00  2.0197936351287063e-01 -7.2425485586711273e-03 0.0000000000000000e+00  -1.8542597438131056e-01 9.1977907057882377e-02 0.0000000000000000e+00  7.9558118100255704e-01 3.9500027374249853e-02 0.0000000000000000e+00  5.7089632958118830e-01 -4.6489175784385317e-01 0.0000000000000000e+00  6.5625010033721587e-01 0.0000000000000000e+00 0.0000000000000000e+00  8.6577109116356088e-01 -3.1341648165891543e-02 0.0000000000000000e+00  5.8595072499854917e-01 1.4171117349967954e-01 0.0000000000000000e+00  -1.3541902481272347e-01 -5.3289319132407764e-01 0.0000000000000000e+00  8.8772585346951194e-01 1.9582974125908964e-01 0.0000000000000000e+00  4.2884726411848412e-01 1.6609754438483626e-01 0.0000000000000000e+00  1.9446966711841858e+00 7.8293019983359380e-01 0.0000000000000000e+00  1.3126232730994312e+00 -5.9972058262409422e-01 0.0000000000000000e+00  8.4358780605319728e-01 1.3218648144568645e+00 0.0000000000000000e+00  1.9852453496061200e+00 -1.5822612442682582e-01 0.0000000000000000e+00  6.6436708967310798e-01 1.4433459487912341e+00 0.0000000000000000e+00  4.8740873612977609e-01 2.4338163836818336e-01 0.0000000000000000e+00  1.1669398492141054e+00 3.4673438094761706e-02 0.0000000000000000e+00  1.7556645360341525e+00 -6.0297045564350549e-01 0.0000000000000000e+00  2.1811316614810830e+00 1.4289015137002372e+00 0.0000000000000000e+00  1.8329742578083210e+00 2.2271044128746403e-01 0.0000000000000000e+00  7.7302718198116127e-02 3.3390948119678229e-02 0.0000000000000000e+00  6.9238467090770439e-01 -7.3596460117738971e-01 0.0000000000000000e+00  1.1610514701238728e+00 -1.1217530278218692e-01 0.0000000000000000e+00  5.0801120021162771e-01 5.4767974579445944e-01 0.0000000000000000e+00  1.6787062606562766e+00 -6.0941161749947026e-01 0.0000000000000000e+00  3.6972130118512148e-01 8.1788053823113138e-01 0.0000000000000000e+00  1.6528399668769342e+00 -1.4384933221660552e-02 0.0000000000000000e+00  1.4561483564591100e+00 -5.9176554502410821e-02 0.0000000000000000e+00  1.5579833564972856e+00 -6.0947970948534891e-01 0.0000000000000000e+00  1.1834304891305172e+00 -2.7075309274560405e-01 0.0000000000000000e+00  1.2593817749632168e+00 1.4176385968850347e-01 0.0000000000000000e+00  7.2148172318171125e-02 2.9854714933348447e-01 0.0000000000000000e+00  1.2796605741027924e+00 9.8113658053311115e-01 0.0000000000000000e+00  1.8424986685876508e+00 1.1161067085940373e+00 0.0000000000000000e+00  1.4801490415749223e+00 2.7979500845446048e-01 0.0000000000000000e+00  1.4809254364823949e+00 7.4232788280692130e-01 0.0000000000000000e+00  1.1978835548637305e+00 1.2526261530831100e+00 0.0000000000000000e+00  9.7400589836979989e-01 -8.9573957202622484e-02 0.0000000000000000e+00  1.2234144835598493e+00 -1.1074698554701206e+00 0.0000000000000000e+00  2.1972897354237988e+00 9.3197680857323828e-02 0.0000000000000000e+00  1.4491632370528154e+00 1.7108313066660066e-01 0.0000000000000000e+00  8.5119876892887258e-01 -9.3513963895552860e-02 0.0000000000000000e+00  1.3023718413455887e+00 2.5693703218403141e-02 0.0000000000000000e+00  -1.2969320279882797e-02 3.2842433649344227e-01 0.0000000000000000e+00  1.6354733134203345e+00 -3.5862989525058137e-01 0.0000000000000000e+00  2.0188074678366523e+00 -9.0024135122027937e-01 0.0000000000000000e+00  1.6622038903306890e+00 -1.0305875348687585e+00 0.0000000000000000e+00  6.4347895408625133e-01 -1.3820308329183451e-01 0.0000000000000000e+00  1.4498869069967724e+00 -8.7832662336595368e-02 0.0000000000000000e+00  9.0793804010784018e-01 1.5817202950476356e-01 0.0000000000000000e+00  -1.7911340804720743e-01 1.3979183488186792e-01 0.0000000000000000e+00  4.6991343645760708e-01 6.9089147459496431e-02 0.0000000000000000e+00  3.8282212382439468e-01 -2.7019741373846065e-02 0.0000000000000000e+00  9.2563290598583814e-01 -5.3177048998586729e-01 0.0000000000000000e+00  8.3588942769256802e-01 1.4918666539288059e-01 0.0000000000000000e+00  8.6746050645640949e-01 1.8499486584652303e-01 0.0000000000000000e+00  1.2272125960534097e+00 -3.9819432222295431e-01 0.0000000000000000e+00  1.0392186635194103e+00 -8.8977451309696931e-01 0.0000000000000000e+00  9.2826182879033337e-01 -4.6576026066457932e-01 0.0000000000000000e+00  1.7900918210861292e+00 9.1879043343671152e-01 0.0