<?xml version="1.0"?>
<VTKFile type="UnstructuredGrid"  version="0.1"  >
<UnstructuredGrid>
<Piece  NumberOfPoints="4269" NumberOfCells="8234">
<Points>
<DataArray  type="Float64"  NumberOfComponents="3"  format="ascii">0 1 0  0 0 0  7.5 0 0  7.5 1 0  1.197537668119028 0.5812868930080463 0  1.2 0.55 0  1.197537668119028 0.5187131069919538 0  1.190211303259031 0.4881966011250105 0  1.178201304837674 0.4592019000520907 0  1.161803398874989 0.4324429495415054 0  1.141421356237309 0.4085786437626905 0  1.117557050458495 0.3881966011250105 0  1.090798099947909 0.3717986951623264 0  1.06180339887499 0.3597886967409693 0  1.031286893008046 0.3524623318809725 0  1 0.35 0  0.9687131069919538 0.3524623318809725 0  0.9381966011250105 0.3597886967409694 0  0.9092019000520906 0.3717986951623264 0  0.8824429495415054 0.3881966011250105 0  0.8585786437626904 0.4085786437626905 0  0.8381966011250105 0.4324429495415054 0  0.8217986951623264 0.4592019000520907 0  0.8097886967409692 0.4881966011250107 0  0.8024623318809725 0.5187131069919539 0  0.8 0.55 0  0.8024623318809725 0.5812868930080463 0  0.8097886967409693 0.6118033988749896 0  0.8217986951623264 0.6407980999479095 0  0.8381966011250105 0.6675570504584947 0  0.8585786437626906 0.6914213562373096 0  0.8824429495415054 0.7118033988749896 0  0.9092019000520907 0.7282013048376736 0  0.9381966011250106 0.7402113032590307 0  0.9687131069919539 0.7475376681190276 0  1 0.75 0  1.031286893008046 0.7475376681190276 0  1.06180339887499 0.7402113032590307 0  1.090798099947909 0.7282013048376736 0  1.117557050458495 0.7118033988749896 0  1.141421356237309 0.6914213562373095 0  1.161803398874989 0.6675570504584947 0  1.178201304837674 0.6407980999479094 0  1.190211303259031 0.6118033988749896 0  3.75 0 0  3.75 1 0  1.875 0 0  1.875 1 0  0.9375 0 0  0.9375 1 0  1.40625 1 0  5.625 1 0  5.625 0 0  2.8125 1 0  2.8125 0 0  4.6875 0 0  4.6875 1 0  6.5625 0 0  6.5625 1 0  5.15625 0.5 0  4.21875 0.5 0  2.34375 0.5 0  3.28125 0.5 0  6.09375 0.5 0  7.5 0.5 0  6.897916666666666 0.5 0  1.842708333333333 0.5 0  0 0.5 0  0.46875 0 0  5.625 0.5302734375 0  7.03125 0 0  6.09375 1 0  2.8125 0.4697265625 0  3.28125 0 0  2.34375 1 0  2.34375 0 0  3.75 0.4697265625 0  4.21875 0 0  4.21875 1 0  4.6875 0.5302734375 0  3.28125 1 0  5.15625 0 0  6.09375 0 0  5.15625 1 0  0.46875 1 0  1.40625 0 0  7.03125 1 0  0.3954638734376499 0.5975780249976004 0  6.495833333333334 0.4072265624999998 0  5.859375 0.25 0  4.905729166666666 0.26513671875 0  4.453125 0.25 0  3.531770833333333 0.73486328125 0  3.968229166666667 0.73486328125 0  2.594270833333333 0.73486328125 0  3.030729166666667 0.73486328125 0  6.328125 0.75 0  7.198958333333334 0.3125000000000002 0  7.198958333333334 0.6874999999999998 0  5.390625 0.25 0  0 0.25 0  2.109375 0.75 0  2.109375 0.25 0  1.51921323205749 0.3418883887525936 0  1.522346610178253 0.6811769608297746 0  5.375456746419271 0.75 0  4.921875 0.76513671875 0  4.437956746419271 0.75 0  3.984375 0.23486328125 0  3.500456746419271 0.25 0  2.578125 0.23486328125 0  3.046875 0.23486328125 0  5.874543253580729 0.75 0  6.642123189445656 0.6909095493086836 0  6.746354166666666 0.2391688368055553 0  0.3197109619185111 0.2850049285972083 0  6.328125 0 0  0.6313375889370429 0.2351325552547357 0  0 0.75 0  6.252283381534729 0.2693808819694041 0  0.234375 1 0  6.948437500000001 0.7543055555555555 0  0.5934018769555939 0.7694151657947577 0  1.858854166666667 0.75 0  1.858854166666667 0.25 0  1.640625 0 0  2.093229166666667 0.5 0  7.5 0.25 0  3.282227579752604 0.75 0  7.5 0.75 0  1.171875 0 0  1.303539853147731 0.2235426933121065 0  5.148177083333333 0.2575683593749998 0  2.351822916666667 0.742431640625 0  1.640625 1 0  4.202380413457425 0.7645435094236485 0  3.047822985053062 0.4701848030090332 0  2.577177014946938 0.4701848030090332 0  4.672792740482199 0.76513671875 0  4.922822985053062 0.5298151969909668 0  5.390593497949761 0.5156244924311331 0  5.610292740482199 0.76513671875 0  3.516602579752604 0.5 0  4.45496853898097 0.4865915990446593 0  5.85753146101903 0.4865915990446593 0  3.749511210123698 0.23486328125 0  3.983397420247396 0.4999999999999999 0  2.343497975411212 0.2346270081980111 0  4.219002024588788 0.2346270081980111 0  0.703125 0 0  2.8125 0.2343755075688669 0  3.046875 0 0  2.578125 0 0  3.515625 0 0  3.984375 0 0  4.453125 1 0  5.390625 1 0  2.109375 0 0  2.109375 1 0  5.625 0.2921402030705575 0  5.390625 0 0  7.265625 0 0  6.796875 0 0  6.328125 1 0  3.046875 1 0  2.578125 1 0  3.984375 1 0  3.515625 1 0  4.453125 0 0  4.921875 0 0  5.859375 0 0  0.703125 1 0  1.171875 1 0  7.265625 1 0  4.921875 1 0  5.859375 1 0  0.234375 0 0  6.796875 1 0  6.980310975276531 0.2285890127127066 0  5.149170481934885 0.772689292163473 0  3.274170481934884 0.2273107078365268 0  6.101334126790364 0.7722468376159667 0  4.678005340872584 0.3000799877067239 0  2.8125 0.6921051326382495 0  3.75 0.6921051326382495 0  0.3515624999999999 0.8134571721668546 0  0.4990405774417521 0.4070099317153735 0  0.1789273931360182 0.625 0  6.31239060814315 0.5298877111157968 0  6.456979773992304 0.1917956348713352 0  6.699870808919271 0.4406293402777773 0  1.337539480965883 0.7944303676599538 0  6.058675797563041 0.2019812164653516 0  0.8203125 0.1643029084422534 0  0.1480856513011711 0.375 0  1.090769294689562 0.1719186776982972 0  7.291088163206459 0.5 0  7.094502414936563 0.5197902199074071 0  0.6046212059042245 0.5730066483871106 0  1.707231580809486 0.6342709161352207 0  1.685961352504593 0.8193269193390785 0  1.374721602852827 0.4600373025865813 0  6.486415510043844 0.5916440776477192 0  1.5234375 0.1508863828685116 0  1.707925830421689 0.3657739208189008 0  0.1674513225045584 0.8278776664019765 0  7.138268756771176 0.1438183366439137 0  7.1484375 0.8616388888888887 0  7.328562530764119 0.819498462930605 0  4.101073710123698 0.3678637200736647 0  1.693878467219965 0.1911955120941053 0  1.577566745468488 0.5110082404081502 0  6.6796875 0.8653871806883484 0  6.498039504430512 0.825568433346395 0  0.7562556668576472 0.8333197949571929 0  4.101045914668806 0.6255195807449272 0  5.030745188395182 0.382829047309028 0  2.476364945868651 0.6095868094762166 0  2.729359843907322 0.8460525663191247 0  2.9296875 0.8740763101564099 0  3.163518307559356 0.6254622797994247 0  3.666859843907322 0.8460525663191247 0  3.8671875 0.8740763101564099 0  4.8046875 0.12592368984359 0  3.14936031382311 0.8606990583876851 0  2.4609375 0.8747622921397776 0  5.023140791101972 0.1392266772452574 0  0 0.125 0  0.1759922923594607 0.1727589856739889 0  4.5703125 0.125 0  7.327755777818006 0.1766156770456191 0  5.5078125 0.125 0  5.719712725029036 0.1460701015352787 0  4.327848962028002 0.3674169956512513 0  5.982681121544351 0.3692637923021713 0  3.398926289876302 0.6245417594909667 0  5.281756792511996 0.3827993367299961 0  2.226822645963271 0.6252438868405666 0  2.234390064317166 0.8676616584526566 0  5.2734375 0.125 0  1.96796875 0.382568359375 0  2.234651037971999 0.3674169956512511 0  1.984114583333333 0.132568359375 0  1.9921875 0.875 0  1.984114583333333 0.632568359375 0  5.748733794462357 0.8678269127183313 0  3.3984375 0.875456329184688 0  1.512925924995415 0.8582958012121853 0  1.359299372802969 0.6275861864990343 0  4.810521420483513 0.4041767793635395 0  0.2996213306116602 0.455339710363317 0  5.999933717403708 0.6388425470751088 0  5.250033449003657 0.6388713364551682 0  3.631676045992918 0.3525406652400928 0  4.3359375 0.8816499670325881 0  4.343577437052484 0.6116511299909198 0  3.375033449003656 0.3611286635448316 0  5.763152151652243 0.6249404690537395 0  4.549347848347757 0.6249404690537396 0  5.5004588702411 0.6403667365776566 0  5.976118394847484 0.8816230218343086 0  5.054722486865804 0.6338007028640954 0  3.164542163493752 0.3520519332736524 0  2.445407482032355 0.3672168403687257 0  4.8046875 0.882568359375 0  4.1015625 0.117431640625 0  2.4609375 0.117431640625 0  2.695556894938151 0.3520510350344335 0  2.929443105061849 0.3520510350344335 0  3.881979231817319 0.3670559016511187 0  3.8671875 0.117431640625 0  4.805389247695744 0.6470047893641744 0  3.399370721942191 0.1184066543556767 0  5.274370721942192 0.881593345644323 0  3.618253274934649 0.1316869186284249 0  2.6953125 0.1171877537844335 0  2.9296875 0.1171877537844335 0  2.21873344389451 0.125 0  4.3359375 0.1171877625080073 0  0.6659898565672709 0.3986593551313873 0  7.363359022954956 0.3481046411219251 0  7.363359022954956 0.6518953588780749 0  5.487719392831826 0.3828237631077121 0  2.695054578344725 0.5809158475691247 0  2.944553877887707 0.5964065668438148 0  0.3515625 0.1201898858097106 0  5.5078125 1 0  4.5703125 1 0  5.031746201297604 0.882568359375 0  3.1640625 0 0  6.2109375 1 0  6.186845385763124 0.6336356480571081 0  4.1015625 1 0  6.810399074069772 0.6495574751396682 0  0.4740615253480797 0.2509287743856873 0  7.052064303830151 0.3684417917792242 0  6.195177069665382 0.1216488332168849 0  5.72300154718324 0.4112068202852788 0  3.879157465495092 0.6111892850691246 0  3.645760045247695 0.5809158475691247 0  6.868257400485771 0.3427840810237202 0  6.612030892260864 0.1521752713064389 0  6.615666885941117 0.3151079644097221 0  4.04296875 0.8633718902669071 0  1.183031453639096 0.8486801864185936 0  6.9140625 0 0  6.859079526500421 0.1398292786950638 0  6.808232443325651 0.7957411753922057 0  6.9140625 1 0  4.544955211100143 0.3675874343205077 0  1.0546875 1 0  6.122060236165557 0.3316791557072867 0  0.5859375 0 0  5.9765625 0 0  5.44921875 0.870984788733638 0  4.51171875 0.870984788733638 0  0.7608354256382215 0.2931261274224557 0  6.386875332239937 0.3156583003094978 0  6.985654756850997 0.6147408423643147 0  6.223797257919172 0.8535621912121121 0  5.936822413218736 0.1338376546337823 0  6.23933008800134 0.4095573603773768 0  0.5414022462152697 0.1305482677949959 0  6.331360438104348 0.1370086318183389 0  0.956404929269873 0.1374266563647954 0  1.2890625 1 0  0.691305981127761 0.6764829884281737 0  3.531251607241209 0.8678916320952239 0  2.59787442813022 
[...]
<PointData  Vectors="f_71627"> 
<DataArray  type="Float64"  Name="f_71627"  NumberOfComponents="3" format="ascii">0.0000000000000000e+00 0.0000000000000000e+00 0.0000000000000000e+00  0.0000000000000000e+00 0.0000000000000000e+00 0.0000000000000000e+00  0.0000000000000000e+00 0.0000000000000000e+00 0.0000000000000000e+00  0.0000000000000000e+00 0.0000000000000000e+00 0.0000000000000000e+00  0.0000000000000000e+00 0.0000000000000000e+00 0.0000000000000000e+00  0.0000000000000000e+00 0.0000000000000000e+00 0.0000000000000000e+00  0.0000000000000000e+00 0.0000000000000000e+00 0.0000000000000000e+00  0.0000000000000000e+00 0.0000000000000000e+00 0.0000000000000000e+00  0.0000000000000000e+00 0.0000000000000000e+00 0.0000000000000000e+00  0.0000000000000000e+00 0.0000000000000000e+00 0.0000000000000000e+00  0.0000000000000000e+00 0.0000000000000000e+00 0.0000000000000000e+00  0.0000000000000000e+00 0.0000000000000000e+00 0.0000000000000000e+00  0.0000000000000000e+00 0.0000000000000000e+00 0.0000000000000000e+00  0.0000000000000000e+00 0.0000000000000000e+00 0.0000000000000000e+00  0.0000000000000000e+00 0.0000000000000000e+00 0.0000000000000000e+00  0.0000000000000000e+00 0.0000000000000000e+00 0.0000000000000000e+00  0.0000000000000000e+00 0.0000000000000000e+00 0.0000000000000000e+00  0.0000000000000000e+00 0.0000000000000000e+00 0.0000000000000000e+00  0.0000000000000000e+00 0.0000000000000000e+00 0.0000000000000000e+00  0.0000000000000000e+00 0.0000000000000000e+00 0.0000000000000000e+00  0.0000000000000000e+00 0.0000000000000000e+00 0.0000000000000000e+00  0.0000000000000000e+00 0.0000000000000000e+00 0.0000000000000000e+00  0.0000000000000000e+00 0.0000000000000000e+00 0.0000000000000000e+00  0.0000000000000000e+00 0.0000000000000000e+00 0.0000000000000000e+00  0.0000000000000000e+00 0.0000000000000000e+00 0.0000000000000000e+00  0.0000000000000000e+00 0.0000000000000000e+00 0.0000000000000000e+00  0.0000000000000000e+00 0.0000000000000000e+00 0.0000000000000000e+00  0.0000000000000000e+00 0.0000000000000000e+00 0.0000000000000000e+00  0.0000000000000000e+00 0.0000000000000000e+00 0.0000000000000000e+00  0.0000000000000000e+00 0.0000000000000000e+00 0.0000000000000000e+00  0.0000000000000000e+00 0.0000000000000000e+00 0.0000000000000000e+00  0.0000000000000000e+00 0.0000000000000000e+00 0.0000000000000000e+00  0.0000000000000000e+00 0.0000000000000000e+00 0.0000000000000000e+00  0.0000000000000000e+00 0.0000000000000000e+00 0.0000000000000000e+00  0.0000000000000000e+00 0.0000000000000000e+00 0.0000000000000000e+00  0.0000000000000000e+00 0.0000000000000000e+00 0.0000000000000000e+00  0.0000000000000000e+00 0.0000000000000000e+00 0.0000000000000000e+00  0.0000000000000000e+00 0.0000000000000000e+00 0.0000000000000000e+00  0.0000000000000000e+00 0.0000000000000000e+00 0.0000000000000000e+00  0.0000000000000000e+00 0.0000000000000000e+00 0.0000000000000000e+00  0.0000000000000000e+00 0.0000000000000000e+00 0.0000000000000000e+00  0.0000000000000000e+00 0.0000000000000000e+00 0.0000000000000000e+00  0.0000000000000000e+00 0.0000000000000000e+00 0.0000000000000000e+00  0.0000000000000000e+00 0.0000000000000000e+00 0.0000000000000000e+00  0.0000000000000000e+00 0.0000000000000000e+00 0.0000000000000000e+00  0.0000000000000000e+00 0.0000000000000000e+00 0.0000000000000000e+00  0.0000000000000000e+00 0.0000000000000000e+00 0.0000000000000000e+00  0.0000000000000000e+00 0.0000000000000000e+00 0.0000000000000000e+00  0.0000000000000000e+00 0.0000000000000000e+00 0.0000000000000000e+00  0.0000000000000000e+00 0.0000000000000000e+00 0.0000000000000000e+00  0.0000000000000000e+00 0.0000000000000000e+00 0.0000000000000000e+00  0.0000000000000000e+00 0.0000000000000000e+00 0.0000000000000000e+00  0.0000000000000000e+00 0.0000000000000000e+00 0.0000000000000000e+00  0.0000000000000000e+00 0.0000000000000000e+00 0.0000000000000000e+00  0.0000000000000000e+00 0.0000000000000000e+00 0.0000000000000000e+00  0.0000000000000000e+00 0.0000000000000000e+00 0.0000000000000000e+00  0.0000000000000000e+00 0.0000000000000000e+00 0.0000000000000000e+00  0.0000000000000000e+00 0.0000000000000000e+00 0.0000000000000000e+00  0.0000000000000000e+00 0.0000000000000000e+00 0.0000000000000000e+00  1.1288222653813291e+00 -1.2061076337076411e-03 0.0000000000000000e+00  1.1410158373981927e+00 -9.0144941946090698e-02 0.0000000000000000e+00  1.2986104176375772e+00 5.8497309104643215e-02 0.0000000000000000e+00  1.6308209981143853e+00 1.2343437783727789e+00 0.0000000000000000e+00  1.1280832768336997e+00 -9.6098157856229439e-04 0.0000000000000000e+00  1.5000002089086053e+00 0.0000000000000000e+00 0.0000000000000000e+00  1.2049264033867888e+00 -2.3395493087767193e-03 0.0000000000000000e+00  1.0726982368158273e+00 2.3390195058306870e-01 0.0000000000000000e+00  1.5000002089086053e+00 0.0000000000000000e+00 0.0000000000000000e+00  0.0000000000000000e+00 0.0000000000000000e+00 0.0000000000000000e+00  1.1357739167088643e+00 4.4132442569524765e-04 0.0000000000000000e+00  0.0000000000000000e+00 0.0000000000000000e+00 0.0000000000000000e+00  0.0000000000000000e+00 0.0000000000000000e+00 0.0000000000000000e+00  2.0020270976239067e+00 -8.8509335056066163e-01 0.0000000000000000e+00  0.0000000000000000e+00 0.0000000000000000e+00 0.0000000000000000e+00  0.0000000000000000e+00 0.0000000000000000e+00 0.0000000000000000e+00  0.0000000000000000e+00 0.0000000000000000e+00 0.0000000000000000e+00  8.3271566833558963e-01 -3.2925977754608726e-01 0.0000000000000000e+00  0.0000000000000000e+00 0.0000000000000000e+00 0.0000000000000000e+00  0.0000000000000000e+00 0.0000000000000000e+00 0.0000000000000000e+00  1.1330075927341554e+00 -1.2325306707390090e-02 0.0000000000000000e+00  0.0000000000000000e+00 0.0000000000000000e+00 0.0000000000000000e+00  0.0000000000000000e+00 0.0000000000000000e+00 0.0000000000000000e+00  0.0000000000000000e+00 0.0000000000000000e+00 0.0000000000000000e+00  0.0000000000000000e+00 0.0000000000000000e+00 0.0000000000000000e+00  0.0000000000000000e+00 0.0000000000000000e+00 0.0000000000000000e+00  0.0000000000000000e+00 0.0000000000000000e+00 0.0000000000000000e+00  0.0000000000000000e+00 0.0000000000000000e+00 0.0000000000000000e+00  1.3761881286973217e+00 4.5167808339539046e-02 0.0000000000000000e+00  1.1507089434813640e+00 -4.3831913268250009e-03 0.0000000000000000e+00  1.1327137357642469e+00 -3.2240731553596613e-05 0.0000000000000000e+00  1.1140524940138188e+00 -2.6538765630487698e-03 0.0000000000000000e+00  1.0866179270065486e+00 -1.8221541353384881e-02 0.0000000000000000e+00  1.6684962047168403e+00 4.2210921829230996e-01 0.0000000000000000e+00  1.3770910944645822e+00 -1.9414857002148511e-01 0.0000000000000000e+00  1.0116189705502934e+00 -4.3991968932114428e-01 0.0000000000000000e+00  4.2861593274749299e-01 4.9760674252508752e-01 0.0000000000000000e+00  1.1346861949130427e+00 -6.0358934337185295e-04 0.0000000000000000e+00  8.5096985214533305e-01 -2.9456585098060479e-03 0.0000000000000000e+00  9.7585952059571235e-01 1.5191456576276316e-02 0.0000000000000000e+00  1.1200611793688546e+00 -2.0588160621865597e-04 0.0000000000000000e+00  1.1250001566814538e+00 0.0000000000000000e+00 0.0000000000000000e+00  7.8852248618462950e-01 4.5865737982095328e-01 0.0000000000000000e+00  1.5505359583839067e+00 2.2984947376788895e-01 0.0000000000000000e+00  9.3440131615130040e-01 -2.0591100636674886e-01 0.0000000000000000e+00  1.4161535264732146e+00 -1.1259931144184852e+00 0.0000000000000000e+00  1.1323952048940757e+00 5.4660180499966715e-04 0.0000000000000000e+00  1.1390181787744820e+00 -4.9478059647670440e-04 0.0000000000000000e+00  1.1635955997004299e+00 -1.7017533530188117e-02 0.0000000000000000e+00  9.5780325125036048e-01 -1.0261049648054835e-01 0.0000000000000000e+00  5.5940701121307757e-01 -2.6740387628417695e-03 0.0000000000000000e+00  6.2269602799499779e-01 4.7232765569189689e-01 0.0000000000000000e+00  1.5753806925139884e+00 1.7752069753269903e-01 0.0000000000000000e+00  1.1357536859724855e+00 -1.4628613821935561e-03 0.0000000000000000e+00  1.1140167551460691e+00 -2.0071043049528580e-06 0.0000000000000000e+00  1.1289209313457695e+00 -8.3780260431597781e-03 0.0000000000000000e+00  1.2103592102170946e+00 -3.4955620767705385e-02 0.0000000000000000e+00  0.0000000000000000e+00 0.0000000000000000e+00 0.0000000000000000e+00  1.1550866697650282e+00 -2.5857779035660888e-01 0.0000000000000000e+00  1.1250001566814538e+00 0.0000000000000000e+00 0.0000000000000000e+00  1.1373551686669365e+00 3.0112711015231239e-03 0.0000000000000000e+00  0.0000000000000000e+00 0.0000000000000000e+00 0.0000000000000000e+00  1.2684888592119981e+00 -3.6794637578926336e-03 0.0000000000000000e+00  1.1315439958745808e+00 2.7395273970461870e-01 0.0000000000000000e+00  2.3513341255922063e-01 -5.3693684118642469e-02 0.0000000000000000e+00  2.2137779182063344e+00 8.2443977237038324e-01 0.0000000000000000e+00  0.0000000000000000e+00 0.0000000000000000e+00 0.0000000000000000e+00  1.4385293432608981e+00 9.8163912776992868e-01 0.0000000000000000e+00  1.1250001566814538e+00 0.0000000000000000e+00 0.0000000000000000e+00  1.1959244269839857e+00 5.6990537498708294e-01 0.0000000000000000e+00  1.1250001566814538e+00 0.0000000000000000e+00 0.0000000000000000e+00  0.0000000000000000e+00 0.0000000000000000e+00 0.0000000000000000e+00  2.1383927704057895e+00 -1.9110037353770462e-01 0.0000000000000000e+00  1.1211286006309853e+00 -4.1400973152126344e-04 0.0000000000000000e+00  1.6668509519447487e+00 -3.8702260095128488e-01 0.0000000000000000e+00  0.0000000000000000e+00 0.0000000000000000e+00 0.0000000000000000e+00  1.2185391312896998e+00 -3.8236489627763555e-02 0.0000000000000000e+00  1.8913714879854542e+00 8.0845696608967166e-01 0.0000000000000000e+00  1.7326580032843890e+00 -3.0144270359400432e-01 0.0000000000000000e+00  1.1467130537775392e+00 -4.5417836900801664e-03 0.0000000000000000e+00  1.1294948401983012e+00 -4.1497534373356832e-03 0.0000000000000000e+00  1.1321289507240349e+00 9.7968953451078736e-04 0.0000000000000000e+00  1.1342366302903648e+00 1.3535848012535777e-03 0.0000000000000000e+00  1.2366595346906220e+00 -8.4950452602140375e-02 0.0000000000000000e+00  1.1287845153744169e+00 -3.2939721708295247e-02 0.0000000000000000e+00  1.1385041334929387e+00 -2.3477264319618248e-06 0.0000000000000000e+00  7.6296488476834601e-01 -1.3048212337497647e-01 0.0000000000000000e+00  1.1269578704722094e+00 -2.4175576718237585e-01 0.0000000000000000e+00  9.5514409391900423e-01 -9.8299520275744415e-02 0.0000000000000000e+00  1.0429963039729540e+00 -4.7007141368151657e-02 0.0000000000000000e+00  0.0000000000000000e+00 0.0000000000000000e+00 0.0000000000000000e+00  1.4706627892433028e+00 -7.3126671338975446e-01 0.0000000000000000e+00  0.0000000000000000e+00 0.0000000000000000e+00 0.0000000000000000e+00  0.0000000000000000e+00 0.0000000000000000e+00 0.0000000000000000e+00  0.0000000000000000e+00 0.0000000000000000e+00 0.0000000000000000e+00  0.0000000000000000e+00 0.0000000000000000e+00 0.0000000000000000e+00  0.0000000000000000e+00 0.0000000000000000e+00 0.0000000000000000e+00  0.0000000000000000e+00 0.0000000000000000e+00 0.0000000000000000e+00  0.0000000000000000e+00 0.0000000000000000e+00 0.0000000000000000e+00  0.0000000000000000e+00 0.0000000000000000e+00 0.0000000000000000e+00  1.1225879819221625e+00 -1.0564734505799494e-05 0.0000000000000000e+00  0.0000000000000000e+00 0.0000000000000000e+00 0.0000000000000000e+00  0.0000000000000000e+00 0.0000000000000000e+00 0.0000000000000000e+00  0.0000000000000000e+00 0.0000000000000000e+00 0.0000000000000000e+00  0.0000000000000000e+00 0.0000000000000000e+00 0.0000000000000000e+00  0.0000000000000000e+00 0.0000000000000000e+00 0.0000000000000000e+00  0.0000000000000000e+00 0.0000000000000000e+00 0.0000000000000000e+00  0.0000000000000000e+00 0.0000000000000000e+00 0.0000000000000000e+00  0.0000000000000000e+00 0.0000000000000000e+00 0.0000000000000000e+00  0.0000000000000000e+00 0.0000000000000000e+00 0.0000000000000000e+00  0.0000000000000000e+00 0.0000000000000000e+00 0.0000000000000000e+00  0.0000000000000000e+00 0.0000000000000000e+00 0.0000000000000000e+00  0.0000000000000000e+00 0.0000000000000000e+00 0.0000000000000000e+00  0.0000000000000000e+00 0.0000000000000000e+00 0.0000000000000000e+00  0.0000000000000000e+00 0.0000000000000000e+00 0.0000000000000000e+00  0.0000000000000000e+00 0.0000000000000000e+00 0.0000000000000000e+00  0.0000000000000000e+00 0.0000000000000000e+00 0.0000000000000000e+00  0.0000000000000000e+00 0.0000000000000000e+00 0.0000000000000000e+00  0.0000000000000000e+00 0.0000000000000000e+00 0.0000000000000000e+00  1.1724985841311293e+00 2.9697369995984992e-04 0.0000000000000000e+00  1.1341907017157220e+00 9.5129089652365309e-04 0.0000000000000000e+00  7.7705541631298014e-01 2.4520482876327657e-01 0.0000000000000000e+00  1.1351522857848735e+00 -1.5713513206933782e-03 0.0000000000000000e+00  1.1113349920188458e+00 -1.0174100790327914e-02 0.0000000000000000e+00  9.1423958246783332e-01 -7.0388256352960887e-01 0.0000000000000000e+00  1.5742553219193323e+00 -1.6208551430600390e-01 0.0000000000000000e+00  9.4654013375692092e-01 6.3396014513571589e-02 0.0000000000000000e+00  1.3216703539669064e+00 -9.0076670127770708e-02 0.0000000000000000e+00  1.3962999843213864e+00 2.2643323503282946e-02 0.0000000000000000e+00  1.1321546835760523e+00 -1.2289179034941837e-03 0.0000000000000000e+00  1.1527056945765224e+00 -5.7136561970438753e-03 0.0000000000000000e+00  1.1846394860068028e+00 -7.2675519431545368e-03 0.0000000000000000e+00  2.3266504855272614e+00 -4.4250769556342318e-01 0.0000000000000000e+00  1.1369539298017959e+00 1.1863437591719454e-03 0.0000000000000000e+00  1.3055829286787806e+00 -3.2510563996280334e-01 0.0000000000000000e+00  1.4022937316976678e+00 7.4491604444719852e-06 0.0000000000000000e+00  1.8601026081447340e+00 -2.1269929382991568e-01 0.0000000000000000e+00  1.3825817225232655e+00 2.2915194659862853e-03 0.0000000000000000e+00  1.3602673947657311e+00 2.0839611910743890e-03 0.0000000000000000e+00  1.1647538416856482e+00 1.2024080161596136e-01 0.0000000000000000e+00  4.6880391489272877e-01 -1.0094343486854886e+00 0.0000000000000000e+00  1.0746820888323338e+00 -3.7499594415572629e-01 0.0000000000000000e+00  -1.1920244266682054e+00 -4.1886251191416857e-01 0.0000000000000000e+00  1.1357601452516461e+00 -1.6671650820336999e-03 0.0000000000000000e+00  2.2434625967067690e+00 1.2097175162457413e-01 0.0000000000000000e+00  1.5277768594941692e+00 1.9923588097358969e-01 0.0000000000000000e+00  8.6247185516186542e-01 2.4109455968860008e-02 0.0000000000000000e+00  9.0435111071040986e-01 -1.6981665709325281e-03 0.0000000000000000e+00  1.0176609201583928e+00 -1.0729426770476572e-03 0.0000000000000000e+00  7.9775553474019489e-01 -4.8603753602686518e-03 0.0000000000000000e+00  1.0512282347086837e+00 -1.2316632680802064e-01 0.0000000000000000e+00  2.2951426868821150e+00 4.8130115557706921e-01 0.0000000000000000e+00  -8.6882686797968911e-01 -1.2075900321628608e+00 0.0000000000000000e+00  1.1015086102694975e+00 7.2050380175451376e-03 0.0000000000000000e+00  1.0592367494665964e+00 -1.4852907321571442e-03 0.0000000000000000e+00  1.3102541985082670e+00 4.7602469925972912e-01 0.0000000000000000e+00  1.2271367711159100e+00 -1.3269059920215032e-01 0.0000000000000000e+00  1.1251909101930517e+00 -2.0659899361553055e-03 0.0000000000000000e+00  1.6947999346897691e+00 -6.0093889997391525e-01 0.0000000000000000e+00  1.6865277511700927e-01 -4.8297329128083283e-01 0.0000000000000000e+00  -2.7554174582465102e-01 -1.1526328471852101e-02 0.0000000000000000e+00  1.3394134377590952e+00 1.2230446610233101e+00 0.0000000000000000e+00  1.5555402215278822e+00 -4.3876032228067199e-02 0.0000000000000000e+00  1.2340395264720574e+00 -6.9184499615778952e-02 0.0000000000000000e+00  1.0298911427246209e+00 -7.8879991610350671e-04 0.0000000000000000e+00  4.4564372007023972e-01 3.8957677318930961e-01 0.0000000000000000e+00  7.6918666205108255e-01 -4.8617529928656956e-02 0.0000000000000000e+00  1.0649086666145169e+00 1.3652128992871022e-03 0.0000000000000000e+00  6.5625009139751467e-01 0.0000000000000000e+00 0.0000000000000000e+00  8.5622978320954990e-01 -7.5490813793588005e-03 0.0000000000000000e+00  1.0186640357196761e+00 -3.4320779019767771e-03 0.0000000000000000e+00  5.5545026278259235e-01 2.8984335677676023e-02 0.0000000000000000e+00  1.0426449216616880e+00 1.3268507019312818e-03 0.0000000000000000e+00  1.0861710629793591e+00 1.4095589235639910e-04 0.0000000000000000e+00  1.0979506449672660e+00 -5.0432913382802286e-02 0.0000000000000000e+00  1.1169570236119868e+00 -4.3537663133717515e-04 0.0000000000000000e+00  2.1615550698110071e+00 6.3873301877614908e-01 0.0000000000000000e+00  1.1270419071841991e+00 -2.3877449093781113e-04 0.0000000000000000e+00  1.1696518294779166e+00 3.7879115296416621e-01 0.0000000000000000e+00  1.1912966826640885e+00 -3.8796931199267262e-02 0.0000000000000000e+00  1.0424474422068635e+00 -3.1086967975448167e-04 0.0000000000000000e+00  2.0935717746558757e+00 1.1381241314231094e+00 0.0000000000000000e+00  1.3645650772935072e+00 2.1466940437821025e-01 0.0000000000000000e+00  7.7225729916633168e-01 3.2561297766531727e-01 0.0000000000000000e+00  9.9465597184283883e-01 2.0750689082918136e-01 0.0000000000000000e+00  4.6569456619057253e-01 1.0875986793642469e+00 0.0000000000000000e+00  1.0611784301975675e+00 4.5028034714635225e-04 0.0000000000000000e+00  7.1058129586744800e-01 2.9695760101226298e-01 0.0000000000000000e+00  1.5970498355786984e+00 -5.3650798352493889e-01 0.0000000000000000e+00  4.7885317510573433e-01 -1.2017834441332212e-01 0.0000000000000000e+00  1.1234804833159420e+00 -7.9780113909042293e-03 0.0000000000000000e+00  1.4503359788066825e+00 -4.4401635353180048e-03 0.0000000000000000e+00  1.1330300563973910e+00 -2.4050177435407074e-05 0.0000000000000000e+00  1.1351682851541318e+00 -3.0468287480660673e-04 0.0000000000000000e+00  6.6055348573569550e-01 -1.7696023220586565e-01 0.0000000000000000e+00  1.0468801060364659e+00 -2.7144972187817902e-03 0.0000000000000000e+00  1.1638913519930731e+00 -4.7433386344588671e-02 0.0000000000000000e+00  6.1243223571624639e-01 1.8229612346306859e-01 0.0000000000000000e+00  1.1369218876608005e+00 -3.4484897076803494e-04 0.0000000000000000e+00  1.1470820747366375e+00 -1.8005762366524170e-02 0.0000000000000000e+00  1.1388094913397644e+00 -5.2365935187209808e-04 0.0000000000000000e+00  1.0320055533461079e+00 1.0685575068193486e-03 0.0000000000000000e+00  1.1367168159149101e+00 -1.7910312506583808e-03 0.0000000000000000e+00  1.5210500744398312e+00 8.8720326578763931e-01 0.0000000000000000e+00  1.2200312407114702e+00 2.9453674049642744e-02 0.0000000000000000e+00  1.0187784653729173e+00 1.0470656440862936e-03 0.0000000000000000e+00  9.3506463594731304e-01 -2.5700985731157908e-02 0.0000000000000000e+00  6.8642214995957440e-01 2.7828655120298570e-02 0.0000000000000000e+00  2.0054973726011105e+00 -7.3240397222713327e-01 0.0000000000000000e+00  2.1673450941333807e+00 -3.8344157109215216e-01 0.0000000000000000e+00  9.0083566909715973e-01 -2.5597319808853597e-01 0.0000000000000000e+00  8.3571703911379602e-01 -3.4115634690497540e-02 0.0000000000000000e+00  1.1396637952523339e+00 -5.8199720256362992e-03 0.0000000000000000e+00  6.5705560353709902e-01 5.3762584805183165e-02 0.0000000000000000e+00  1.0215255501900882e+00 2.0462144497703774e-04 0.0000000000000000e+00  7.0254232985380660e-01 -2.9482539327666493e-02 0.0000000000000000e+00  3.1841647161849412e-01 -2.7725212616041564e-02 0.0000000000000000e+00  7.8806071202985239e-01 -2.0965036173881052e-01 0.0000000000000000e+00  5.5210070407467138e-01 -1.4617267922209126e-01 0.0000000000000000e+00  9.8311312777768822e-01 -9.8573440333882614e-03 0.0000000000000000e+00  1.1634420151188427e+00 -3.2198227850414313e-01 0.0000000000000000e+00  1.0074486112538483e+00 -6.2445417116371860e-03 0.0000000000000000e+00  1.0925312589694938e+00 1.0567841062507983e-02 0.0000000000000000e+00  1.1265115739944873e+00 -4.308770127