<?xml version="1.0"?>
<VTKFile type="UnstructuredGrid"  version="0.1"  >
<UnstructuredGrid>
<Piece  NumberOfPoints="4269" NumberOfCells="8234">
<Points>
<DataArray  type="Float64"  NumberOfComponents="3"  format="ascii">0 1 0  0 0 0  7.5 0 0  7.5 1 0  1.197537668119028 0.5812868930080463 0  1.2 0.55 0  1.197537668119028 0.5187131069919538 0  1.190211303259031 0.4881966011250105 0  1.178201304837674 0.4592019000520907 0  1.161803398874989 0.4324429495415054 0  1.141421356237309 0.4085786437626905 0  1.117557050458495 0.3881966011250105 0  1.090798099947909 0.3717986951623264 0  1.06180339887499 0.3597886967409693 0  1.031286893008046 0.3524623318809725 0  1 0.35 0  0.9687131069919538 0.3524623318809725 0  0.9381966011250105 0.3597886967409694 0  0.9092019000520906 0.3717986951623264 0  0.8824429495415054 0.3881966011250105 0  0.8585786437626904 0.4085786437626905 0  0.8381966011250105 0.4324429495415054 0  0.8217986951623264 0.4592019000520907 0  0.8097886967409692 0.4881966011250107 0  0.8024623318809725 0.5187131069919539 0  0.8 0.55 0  0.8024623318809725 0.5812868930080463 0  0.8097886967409693 0.6118033988749896 0  0.8217986951623264 0.6407980999479095 0  0.8381966011250105 0.6675570504584947 0  0.8585786437626906 0.6914213562373096 0  0.8824429495415054 0.7118033988749896 0  0.9092019000520907 0.7282013048376736 0  0.9381966011250106 0.7402113032590307 0  0.9687131069919539 0.7475376681190276 0  1 0.75 0  1.031286893008046 0.7475376681190276 0  1.06180339887499 0.7402113032590307 0  1.090798099947909 0.7282013048376736 0  1.117557050458495 0.7118033988749896 0  1.141421356237309 0.6914213562373095 0  1.161803398874989 0.6675570504584947 0  1.178201304837674 0.6407980999479094 0  1.190211303259031 0.6118033988749896 0  3.75 0 0  3.75 1 0  1.875 0 0  1.875 1 0  0.9375 0 0  0.9375 1 0  1.40625 1 0  5.625 1 0  5.625 0 0  2.8125 1 0  2.8125 0 0  4.6875 0 0  4.6875 1 0  6.5625 0 0  6.5625 1 0  5.15625 0.5 0  4.21875 0.5 0  2.34375 0.5 0  3.28125 0.5 0  6.09375 0.5 0  7.5 0.5 0  6.897916666666666 0.5 0  1.842708333333333 0.5 0  0 0.5 0  0.46875 0 0  5.625 0.5302734375 0  7.03125 0 0  6.09375 1 0  2.8125 0.4697265625 0  3.28125 0 0  2.34375 1 0  2.34375 0 0  3.75 0.4697265625 0  4.21875 0 0  4.21875 1 0  4.6875 0.5302734375 0  3.28125 1 0  5.15625 0 0  6.09375 0 0  5.15625 1 0  0.46875 1 0  1.40625 0 0  7.03125 1 0  0.3954638734376499 0.5975780249976004 0  6.495833333333334 0.4072265624999998 0  5.859375 0.25 0  4.905729166666666 0.26513671875 0  4.453125 0.25 0  3.531770833333333 0.73486328125 0  3.968229166666667 0.73486328125 0  2.594270833333333 0.73486328125 0  3.030729166666667 0.73486328125 0  6.328125 0.75 0  7.198958333333334 0.3125000000000002 0  7.198958333333334 0.6874999999999998 0  5.390625 0.25 0  0 0.25 0  2.109375 0.75 0  2.109375 0.25 0  1.51921323205749 0.3418883887525936 0  1.522346610178253 0.6811769608297746 0  5.375456746419271 0.75 0  4.921875 0.76513671875 0  4.437956746419271 0.75 0  3.984375 0.23486328125 0  3.500456746419271 0.25 0  2.578125 0.23486328125 0  3.046875 0.23486328125 0  5.874543253580729 0.75 0  6.642123189445656 0.6909095493086836 0  6.746354166666666 0.2391688368055553 0  0.3197109619185111 0.2850049285972083 0  6.328125 0 0  0.6313375889370429 0.2351325552547357 0  0 0.75 0  6.252283381534729 0.2693808819694041 0  0.234375 1 0  6.948437500000001 0.7543055555555555 0  0.5934018769555939 0.7694151657947577 0  1.858854166666667 0.75 0  1.858854166666667 0.25 0  1.640625 0 0  2.093229166666667 0.5 0  7.5 0.25 0  3.282227579752604 0.75 0  7.5 0.75 0  1.171875 0 0  1.303539853147731 0.2235426933121065 0  5.148177083333333 0.2575683593749998 0  2.351822916666667 0.742431640625 0  1.640625 1 0  4.202380413457425 0.7645435094236485 0  3.047822985053062 0.4701848030090332 0  2.577177014946938 0.4701848030090332 0  4.672792740482199 0.76513671875 0  4.922822985053062 0.5298151969909668 0  5.390593497949761 0.5156244924311331 0  5.610292740482199 0.76513671875 0  3.516602579752604 0.5 0  4.45496853898097 0.4865915990446593 0  5.85753146101903 0.4865915990446593 0  3.749511210123698 0.23486328125 0  3.983397420247396 0.4999999999999999 0  2.343497975411212 0.2346270081980111 0  4.219002024588788 0.2346270081980111 0  0.703125 0 0  2.8125 0.2343755075688669 0  3.046875 0 0  2.578125 0 0  3.515625 0 0  3.984375 0 0  4.453125 1 0  5.390625 1 0  2.109375 0 0  2.109375 1 0  5.625 0.2921402030705575 0  5.390625 0 0  7.265625 0 0  6.796875 0 0  6.328125 1 0  3.046875 1 0  2.578125 1 0  3.984375 1 0  3.515625 1 0  4.453125 0 0  4.921875 0 0  5.859375 0 0  0.703125 1 0  1.171875 1 0  7.265625 1 0  4.921875 1 0  5.859375 1 0  0.234375 0 0  6.796875 1 0  6.980310975276531 0.2285890127127066 0  5.149170481934885 0.772689292163473 0  3.274170481934884 0.2273107078365268 0  6.101334126790364 0.7722468376159667 0  4.678005340872584 0.3000799877067239 0  2.8125 0.6921051326382495 0  3.75 0.6921051326382495 0  0.3515624999999999 0.8134571721668546 0  0.4990405774417521 0.4070099317153735 0  0.1789273931360182 0.625 0  6.31239060814315 0.5298877111157968 0  6.456979773992304 0.1917956348713352 0  6.699870808919271 0.4406293402777773 0  1.337539480965883 0.7944303676599538 0  6.058675797563041 0.2019812164653516 0  0.8203125 0.1643029084422534 0  0.1480856513011711 0.375 0  1.090769294689562 0.1719186776982972 0  7.291088163206459 0.5 0  7.094502414936563 0.5197902199074071 0  0.6046212059042245 0.5730066483871106 0  1.707231580809486 0.6342709161352207 0  1.685961352504593 0.8193269193390785 0  1.374721602852827 0.4600373025865813 0  6.486415510043844 0.5916440776477192 0  1.5234375 0.1508863828685116 0  1.707925830421689 0.3657739208189008 0  0.1674513225045584 0.8278776664019765 0  7.138268756771176 0.1438183366439137 0  7.1484375 0.8616388888888887 0  7.328562530764119 0.819498462930605 0  4.101073710123698 0.3678637200736647 0  1.693878467219965 0.1911955120941053 0  1.577566745468488 0.5110082404081502 0  6.6796875 0.8653871806883484 0  6.498039504430512 0.825568433346395 0  0.7562556668576472 0.8333197949571929 0  4.101045914668806 0.6255195807449272 0  5.030745188395182 0.382829047309028 0  2.476364945868651 0.6095868094762166 0  2.729359843907322 0.8460525663191247 0  2.9296875 0.8740763101564099 0  3.163518307559356 0.6254622797994247 0  3.666859843907322 0.8460525663191247 0  3.8671875 0.8740763101564099 0  4.8046875 0.12592368984359 0  3.14936031382311 0.8606990583876851 0  2.4609375 0.8747622921397776 0  5.023140791101972 0.1392266772452574 0  0 0.125 0  0.1759922923594607 0.1727589856739889 0  4.5703125 0.125 0  7.327755777818006 0.1766156770456191 0  5.5078125 0.125 0  5.719712725029036 0.1460701015352787 0  4.327848962028002 0.3674169956512513 0  5.982681121544351 0.3692637923021713 0  3.398926289876302 0.6245417594909667 0  5.281756792511996 0.3827993367299961 0  2.226822645963271 0.6252438868405666 0  2.234390064317166 0.8676616584526566 0  5.2734375 0.125 0  1.96796875 0.382568359375 0  2.234651037971999 0.3674169956512511 0  1.984114583333333 0.132568359375 0  1.9921875 0.875 0  1.984114583333333 0.632568359375 0  5.748733794462357 0.8678269127183313 0  3.3984375 0.875456329184688 0  1.512925924995415 0.8582958012121853 0  1.359299372802969 0.6275861864990343 0  4.810521420483513 0.4041767793635395 0  0.2996213306116602 0.455339710363317 0  5.999933717403708 0.6388425470751088 0  5.250033449003657 0.6388713364551682 0  3.631676045992918 0.3525406652400928 0  4.3359375 0.8816499670325881 0  4.343577437052484 0.6116511299909198 0  3.375033449003656 0.3611286635448316 0  5.763152151652243 0.6249404690537395 0  4.549347848347757 0.6249404690537396 0  5.5004588702411 0.6403667365776566 0  5.976118394847484 0.8816230218343086 0  5.054722486865804 0.6338007028640954 0  3.164542163493752 0.3520519332736524 0  2.445407482032355 0.3672168403687257 0  4.8046875 0.882568359375 0  4.1015625 0.117431640625 0  2.4609375 0.117431640625 0  2.695556894938151 0.3520510350344335 0  2.929443105061849 0.3520510350344335 0  3.881979231817319 0.3670559016511187 0  3.8671875 0.117431640625 0  4.805389247695744 0.6470047893641744 0  3.399370721942191 0.1184066543556767 0  5.274370721942192 0.881593345644323 0  3.618253274934649 0.1316869186284249 0  2.6953125 0.1171877537844335 0  2.9296875 0.1171877537844335 0  2.21873344389451 0.125 0  4.3359375 0.1171877625080073 0  0.6659898565672709 0.3986593551313873 0  7.363359022954956 0.3481046411219251 0  7.363359022954956 0.6518953588780749 0  5.487719392831826 0.3828237631077121 0  2.695054578344725 0.5809158475691247 0  2.944553877887707 0.5964065668438148 0  0.3515625 0.1201898858097106 0  5.5078125 1 0  4.5703125 1 0  5.031746201297604 0.882568359375 0  3.1640625 0 0  6.2109375 1 0  6.186845385763124 0.6336356480571081 0  4.1015625 1 0  6.810399074069772 0.6495574751396682 0  0.4740615253480797 0.2509287743856873 0  7.052064303830151 0.3684417917792242 0  6.195177069665382 0.1216488332168849 0  5.72300154718324 0.4112068202852788 0  3.879157465495092 0.6111892850691246 0  3.645760045247695 0.5809158475691247 0  6.868257400485771 0.3427840810237202 0  6.612030892260864 0.1521752713064389 0  6.615666885941117 0.3151079644097221 0  4.04296875 0.8633718902669071 0  1.183031453639096 0.8486801864185936 0  6.9140625 0 0  6.859079526500421 0.1398292786950638 0  6.808232443325651 0.7957411753922057 0  6.9140625 1 0  4.544955211100143 0.3675874343205077 0  1.0546875 1 0  6.122060236165557 0.3316791557072867 0  0.5859375 0 0  5.9765625 0 0  5.44921875 0.870984788733638 0  4.51171875 0.870984788733638 0  0.7608354256382215 0.2931261274224557 0  6.386875332239937 0.3156583003094978 0  6.985654756850997 0.6147408423643147 0  6.223797257919172 0.8535621912121121 0  5.936822413218736 0.1338376546337823 0  6.23933008800134 0.4095573603773768 0  0.5414022462152697 0.1305482677949959 0  6.331360438104348 0.1370086318183389 0  0.956404929269873 0.1374266563647954 0  1.2890625 1 0  0.691305981127761 0.6764829884281737 0  3.531251607241209 0.8678916320952239 0  2.59787442813022 
[...]
<PointData  Vectors="f_71627"> 
<DataArray  type="Float64"  Name="f_71627"  NumberOfComponents="3" format="ascii">0.0000000000000000e+00 0.0000000000000000e+00 0.0000000000000000e+00  0.0000000000000000e+00 0.0000000000000000e+00 0.0000000000000000e+00  0.0000000000000000e+00 0.0000000000000000e+00 0.0000000000000000e+00  0.0000000000000000e+00 0.0000000000000000e+00 0.0000000000000000e+00  0.0000000000000000e+00 0.0000000000000000e+00 0.0000000000000000e+00  0.0000000000000000e+00 0.0000000000000000e+00 0.0000000000000000e+00  0.0000000000000000e+00 0.0000000000000000e+00 0.0000000000000000e+00  0.0000000000000000e+00 0.0000000000000000e+00 0.0000000000000000e+00  0.0000000000000000e+00 0.0000000000000000e+00 0.0000000000000000e+00  0.0000000000000000e+00 0.0000000000000000e+00 0.0000000000000000e+00  0.0000000000000000e+00 0.0000000000000000e+00 0.0000000000000000e+00  0.0000000000000000e+00 0.0000000000000000e+00 0.0000000000000000e+00  0.0000000000000000e+00 0.0000000000000000e+00 0.0000000000000000e+00  0.0000000000000000e+00 0.0000000000000000e+00 0.0000000000000000e+00  0.0000000000000000e+00 0.0000000000000000e+00 0.0000000000000000e+00  0.0000000000000000e+00 0.0000000000000000e+00 0.0000000000000000e+00  0.0000000000000000e+00 0.0000000000000000e+00 0.0000000000000000e+00  0.0000000000000000e+00 0.0000000000000000e+00 0.0000000000000000e+00  0.0000000000000000e+00 0.0000000000000000e+00 0.0000000000000000e+00  0.0000000000000000e+00 0.0000000000000000e+00 0.0000000000000000e+00  0.0000000000000000e+00 0.0000000000000000e+00 0.0000000000000000e+00  0.0000000000000000e+00 0.0000000000000000e+00 0.0000000000000000e+00  0.0000000000000000e+00 0.0000000000000000e+00 0.0000000000000000e+00  0.0000000000000000e+00 0.0000000000000000e+00 0.0000000000000000e+00  0.0000000000000000e+00 0.0000000000000000e+00 0.0000000000000000e+00  0.0000000000000000e+00 0.0000000000000000e+00 0.0000000000000000e+00  0.0000000000000000e+00 0.0000000000000000e+00 0.0000000000000000e+00  0.0000000000000000e+00 0.0000000000000000e+00 0.0000000000000000e+00  0.0000000000000000e+00 0.0000000000000000e+00 0.0000000000000000e+00  0.0000000000000000e+00 0.0000000000000000e+00 0.0000000000000000e+00  0.0000000000000000e+00 0.0000000000000000e+00 0.0000000000000000e+00  0.0000000000000000e+00 0.0000000000000000e+00 0.0000000000000000e+00  0.0000000000000000e+00 0.0000000000000000e+00 0.0000000000000000e+00  0.0000000000000000e+00 0.0000000000000000e+00 0.0000000000000000e+00  0.0000000000000000e+00 0.0000000000000000e+00 0.0000000000000000e+00  0.0000000000000000e+00 0.0000000000000000e+00 0.0000000000000000e+00  0.0000000000000000e+00 0.0000000000000000e+00 0.0000000000000000e+00  0.0000000000000000e+00 0.0000000000000000e+00 0.0000000000000000e+00  0.0000000000000000e+00 0.0000000000000000e+00 0.0000000000000000e+00  0.0000000000000000e+00 0.0000000000000000e+00 0.0000000000000000e+00  0.0000000000000000e+00 0.0000000000000000e+00 0.0000000000000000e+00  0.0000000000000000e+00 0.0000000000000000e+00 0.0000000000000000e+00  0.0000000000000000e+00 0.0000000000000000e+00 0.0000000000000000e+00  0.0000000000000000e+00 0.0000000000000000e+00 0.0000000000000000e+00  0.0000000000000000e+00 0.0000000000000000e+00 0.0000000000000000e+00  0.0000000000000000e+00 0.0000000000000000e+00 0.0000000000000000e+00  0.0000000000000000e+00 0.0000000000000000e+00 0.0000000000000000e+00  0.0000000000000000e+00 0.0000000000000000e+00 0.0000000000000000e+00  0.0000000000000000e+00 0.0000000000000000e+00 0.0000000000000000e+00  0.0000000000000000e+00 0.0000000000000000e+00 0.0000000000000000e+00  0.0000000000000000e+00 0.0000000000000000e+00 0.0000000000000000e+00  0.0000000000000000e+00 0.0000000000000000e+00 0.0000000000000000e+00  0.0000000000000000e+00 0.0000000000000000e+00 0.0000000000000000e+00  0.0000000000000000e+00 0.0000000000000000e+00 0.0000000000000000e+00  0.0000000000000000e+00 0.0000000000000000e+00 0.0000000000000000e+00  0.0000000000000000e+00 0.0000000000000000e+00 0.0000000000000000e+00  0.0000000000000000e+00 0.0000000000000000e+00 0.0000000000000000e+00  0.0000000000000000e+00 0.0000000000000000e+00 0.0000000000000000e+00  0.0000000000000000e+00 0.0000000000000000e+00 0.0000000000000000e+00  1.5604523679460007e+00 -8.7312041151722564e-01 0.0000000000000000e+00  1.7586416925277280e+00 -8.3656014896850761e-01 0.0000000000000000e+00  1.6975812717953718e+00 1.6162654367121894e+00 0.0000000000000000e+00  2.2559077141120576e+00 3.2931134429657488e-01 0.0000000000000000e+00  1.2191141617014429e+00 2.7184981129843033e-01 0.0000000000000000e+00  1.5000002244226054e+00 0.0000000000000000e+00 0.0000000000000000e+00  1.2241552863826008e+00 -5.8248663726315576e-02 0.0000000000000000e+00  1.4656681523034809e+00 -1.4350159349633718e+00 0.0000000000000000e+00  1.5000002244226054e+00 0.0000000000000000e+00 0.0000000000000000e+00  0.0000000000000000e+00 0.0000000000000000e+00 0.0000000000000000e+00  1.2793330140427701e+00 1.4427237227854153e-01 0.0000000000000000e+00  0.0000000000000000e+00 0.0000000000000000e+00 0.0000000000000000e+00  0.0000000000000000e+00 0.0000000000000000e+00 0.0000000000000000e+00  1.7099596217169875e+00 -5.8655286043568866e-01 0.0000000000000000e+00  0.0000000000000000e+00 0.0000000000000000e+00 0.0000000000000000e+00  0.0000000000000000e+00 0.0000000000000000e+00 0.0000000000000000e+00  0.0000000000000000e+00 0.0000000000000000e+00 0.0000000000000000e+00  1.5139415919951889e+00 1.3178317038445306e-01 0.0000000000000000e+00  0.0000000000000000e+00 0.0000000000000000e+00 0.0000000000000000e+00  0.0000000000000000e+00 0.0000000000000000e+00 0.0000000000000000e+00  1.5666625359465962e+00 8.6707040597222207e-01 0.0000000000000000e+00  0.0000000000000000e+00 0.0000000000000000e+00 0.0000000000000000e+00  0.0000000000000000e+00 0.0000000000000000e+00 0.0000000000000000e+00  0.0000000000000000e+00 0.0000000000000000e+00 0.0000000000000000e+00  0.0000000000000000e+00 0.0000000000000000e+00 0.0000000000000000e+00  0.0000000000000000e+00 0.0000000000000000e+00 0.0000000000000000e+00  0.0000000000000000e+00 0.0000000000000000e+00 0.0000000000000000e+00  0.0000000000000000e+00 0.0000000000000000e+00 0.0000000000000000e+00  1.3607527012739755e+00 -2.5587477629860869e-02 0.0000000000000000e+00  1.5441541031338217e+00 -8.0893177114741713e-02 0.0000000000000000e+00  1.3347112941834935e+00 4.6645269096180203e-01 0.0000000000000000e+00  9.8070497388565259e-01 1.5556579468284185e-01 0.0000000000000000e+00  1.7571913474889540e+00 4.6234622905461958e-01 0.0000000000000000e+00  5.8650226965587393e-01 9.3600661406655705e-01 0.0000000000000000e+00  8.8561483258391249e-01 -9.1410657425814457e-01 0.0000000000000000e+00  1.2287867444786769e+00 -4.7168406098137411e-02 0.0000000000000000e+00  3.7666446871912718e-01 -6.6941409568921828e-01 0.0000000000000000e+00  1.4250314389844656e+00 -1.3529050058683584e-01 0.0000000000000000e+00  1.0524811085671757e+00 7.6300488998527483e-02 0.0000000000000000e+00  1.0113981883659160e+00 6.2981053500679257e-02 0.0000000000000000e+00  1.6421707838843411e+00 -4.8946959170433590e-01 0.0000000000000000e+00  1.1250001683169537e+00 0.0000000000000000e+00 0.0000000000000000e+00  -2.6576059972534372e-01 6.5664960628489075e-02 0.0000000000000000e+00  2.2224576128927667e+00 4.3162554953959548e-01 0.0000000000000000e+00  9.4924403161311721e-01 7.9388606093569192e-01 0.0000000000000000e+00  1.6604382769310477e+00 -4.3505204569606137e-01 0.0000000000000000e+00  4.7087192724014743e-01 -5.7640879181674398e-01 0.0000000000000000e+00  1.1369468119918669e+00 2.1174755671826993e-02 0.0000000000000000e+00  2.0853547507957457e-01 2.5632420132492112e-01 0.0000000000000000e+00  9.7806930788723756e-01 -6.8067762500460782e-01 0.0000000000000000e+00  1.0581790747328195e+00 7.7194095217305814e-01 0.0000000000000000e+00  1.1765187238450328e+00 4.3637211107724455e-01 0.0000000000000000e+00  1.4354473762879616e+00 -6.1354637788497091e-01 0.0000000000000000e+00  6.1362797208744102e-01 8.4656216684488128e-01 0.0000000000000000e+00  1.3786079700968965e+00 -2.4814177887891750e-01 0.0000000000000000e+00  9.4398022123896463e-01 -6.0785380063491556e-01 0.0000000000000000e+00  1.2350965897395951e+00 -8.5446577915570462e-02 0.0000000000000000e+00  0.0000000000000000e+00 0.0000000000000000e+00 0.0000000000000000e+00  1.2547775354795985e+00 -2.9599029710717023e-01 0.0000000000000000e+00  1.1250001683169537e+00 0.0000000000000000e+00 0.0000000000000000e+00  8.9326279720338853e-01 2.4066684226755550e-01 0.0000000000000000e+00  0.0000000000000000e+00 0.0000000000000000e+00 0.0000000000000000e+00  1.1358259859903237e+00 4.8397896892450248e-02 0.0000000000000000e+00  1.0364968272370676e+00 2.1292943628511271e-01 0.0000000000000000e+00  7.8478861925504184e-01 -1.7797960970952542e-01 0.0000000000000000e+00  1.1241041749650007e+00 -5.0510995304174877e-01 0.0000000000000000e+00  0.0000000000000000e+00 0.0000000000000000e+00 0.0000000000000000e+00  1.7335864512150534e+00 -4.9670063476769366e-01 0.0000000000000000e+00  1.1250001683169537e+00 0.0000000000000000e+00 0.0000000000000000e+00  -4.5668822584791612e-03 4.2742674938679320e-01 0.0000000000000000e+00  1.1250001683169537e+00 0.0000000000000000e+00 0.0000000000000000e+00  0.0000000000000000e+00 0.0000000000000000e+00 0.0000000000000000e+00  1.9066310017247896e+00 3.9775143185821898e-01 0.0000000000000000e+00  1.0250811839072951e+00 -6.1147146383197071e-01 0.0000000000000000e+00  6.2566226304869277e-01 7.7692745827841037e-01 0.0000000000000000e+00  0.0000000000000000e+00 0.0000000000000000e+00 0.0000000000000000e+00  1.9717414134104200e-01 -3.4258399711401633e-01 0.0000000000000000e+00  2.1019824258711672e+00 -7.8326413990706767e-01 0.0000000000000000e+00  1.4957991744610697e+00 8.4454926662041366e-02 0.0000000000000000e+00  8.3544177366875971e-01 5.6865522046601313e-01 0.0000000000000000e+00  1.6582053352873347e+00 6.2182022675653932e-02 0.0000000000000000e+00  1.4256090043865992e+00 -8.9591674559969992e-01 0.0000000000000000e+00  2.0708219075264739e-01 2.9818824280691547e-01 0.0000000000000000e+00  1.7623370570041199e+00 1.4273887488234187e+00 0.0000000000000000e+00  1.8954283609672040e+00 8.1974861891522854e-01 0.0000000000000000e+00  1.4495823212478600e+00 1.1037924734470244e+00 0.0000000000000000e+00  5.9212594372354344e-01 6.0716808613758104e-02 0.0000000000000000e+00  1.4827990264443949e+00 -1.3328144964381650e+00 0.0000000000000000e+00  1.1146113735368126e+00 4.3784659447936425e-01 0.0000000000000000e+00  1.7454527599951386e+00 -8.8877564138599263e-02 0.0000000000000000e+00  0.0000000000000000e+00 0.0000000000000000e+00 0.0000000000000000e+00  1.4216285600485288e+00 -3.6092427050816211e-01 0.0000000000000000e+00  0.0000000000000000e+00 0.0000000000000000e+00 0.0000000000000000e+00  0.0000000000000000e+00 0.0000000000000000e+00 0.0000000000000000e+00  0.0000000000000000e+00 0.0000000000000000e+00 0.0000000000000000e+00  0.0000000000000000e+00 0.0000000000000000e+00 0.0000000000000000e+00  0.0000000000000000e+00 0.0000000000000000e+00 0.0000000000000000e+00  0.0000000000000000e+00 0.0000000000000000e+00 0.0000000000000000e+00  0.0000000000000000e+00 0.0000000000000000e+00 0.0000000000000000e+00  0.0000000000000000e+00 0.0000000000000000e+00 0.0000000000000000e+00  1.9097603324207908e+00 1.4797911312849632e-01 0.0000000000000000e+00  0.0000000000000000e+00 0.0000000000000000e+00 0.0000000000000000e+00  0.0000000000000000e+00 0.0000000000000000e+00 0.0000000000000000e+00  0.0000000000000000e+00 0.0000000000000000e+00 0.0000000000000000e+00  0.0000000000000000e+00 0.0000000000000000e+00 0.0000000000000000e+00  0.0000000000000000e+00 0.0000000000000000e+00 0.0000000000000000e+00  0.0000000000000000e+00 0.0000000000000000e+00 0.0000000000000000e+00  0.0000000000000000e+00 0.0000000000000000e+00 0.0000000000000000e+00  0.0000000000000000e+00 0.0000000000000000e+00 0.0000000000000000e+00  0.0000000000000000e+00 0.0000000000000000e+00 0.0000000000000000e+00  0.0000000000000000e+00 0.0000000000000000e+00 0.0000000000000000e+00  0.0000000000000000e+00 0.0000000000000000e+00 0.0000000000000000e+00  0.0000000000000000e+00 0.0000000000000000e+00 0.0000000000000000e+00  0.0000000000000000e+00 0.0000000000000000e+00 0.0000000000000000e+00  0.0000000000000000e+00 0.0000000000000000e+00 0.0000000000000000e+00  0.0000000000000000e+00 0.0000000000000000e+00 0.0000000000000000e+00  0.0000000000000000e+00 0.0000000000000000e+00 0.0000000000000000e+00  0.0000000000000000e+00 0.0000000000000000e+00 0.0000000000000000e+00  0.0000000000000000e+00 0.0000000000000000e+00 0.0000000000000000e+00  1.4058805313383205e+00 1.5024425424733270e-01 0.0000000000000000e+00  9.8819058078972732e-01 -3.6478514718477095e-01 0.0000000000000000e+00  1.4932022177812057e+00 1.3135675879389377e-01 0.0000000000000000e+00  1.2723449361801562e+00 3.3855318056890238e-02 0.0000000000000000e+00  1.3346308139301970e+00 4.9738066177998641e-01 0.0000000000000000e+00  1.1292317860951497e+00 -6.9945633705985977e-01 0.0000000000000000e+00  1.0518231432380212e+00 1.5867489089601783e-01 0.0000000000000000e+00  8.9856180772705996e-01 2.4486765508368490e-02 0.0000000000000000e+00  1.3597928571167044e+00 -1.6456170193736858e-01 0.0000000000000000e+00  1.3926637855986728e+00 -2.3185047648487563e-02 0.0000000000000000e+00  1.3889184868976581e+00 7.3818607342656245e-02 0.0000000000000000e+00  5.0138858076823689e-01 -8.3631969494745828e-02 0.0000000000000000e+00  1.5344053274997118e+00 -5.7448821626598767e-01 0.0000000000000000e+00  2.1798773784649645e+00 -2.0422252105941316e-01 0.0000000000000000e+00  9.4525464084793032e-01 9.1233796775539666e-02 0.0000000000000000e+00  1.4461465826282507e+00 -3.2250709455015314e-01 0.0000000000000000e+00  1.4045985042879421e+00 -3.7061761413907400e-02 0.0000000000000000e+00  1.9176437455310580e+00 -4.2827283949763767e-03 0.0000000000000000e+00  1.3840709114644221e+00 4.7918995688774432e-02 0.0000000000000000e+00  1.3777337289813634e+00 1.2083338579762075e-01 0.0000000000000000e+00  1.1437573882523353e+00 1.7824532731936207e-02 0.0000000000000000e+00  2.1018895320431019e+00 -1.5182632779956267e+00 0.0000000000000000e+00  1.1826384823440639e+00 -6.9170915339158834e-01 0.0000000000000000e+00  1.3761383803600653e-02 9.5140648426511398e-01 0.0000000000000000e+00  1.5679906517833535e+00 -2.1144318585325322e-01 0.0000000000000000e+00  1.2019967314034135e+00 1.4372254201302989e-01 0.0000000000000000e+00  2.6769065841045125e-01 -5.2587347297705878e-01 0.0000000000000000e+00  8.5008509772545604e-01 -7.0269928886057577e-03 0.0000000000000000e+00  8.5944082886239170e-01 5.7663303409787738e-02 0.0000000000000000e+00  9.1097959919589200e-01 5.2203693024070316e-03 0.0000000000000000e+00  8.3135089530214301e-01 -7.6493655888280783e-03 0.0000000000000000e+00  1.5983694297785100e+00 -8.4454129659567978e-01 0.0000000000000000e+00  1.1524103401918675e+00 -2.5618100827458967e-01 0.0000000000000000e+00  4.8814742304611070e-01 3.6554438232645542e-01 0.0000000000000000e+00  8.6627416700960114e-01 -2.0856425300490460e-02 0.0000000000000000e+00  1.0368190015758749e+00 -1.1694767156220637e-01 0.0000000000000000e+00  1.1473778832473025e+00 4.1308879912104840e-01 0.0000000000000000e+00  1.1056082387504231e+00 -1.1346513828857470e+00 0.0000000000000000e+00  1.4261297276721916e+00 -4.4623968428548305e-01 0.0000000000000000e+00  1.3290728550190778e+00 5.9975016055105368e-01 0.0000000000000000e+00  7.2147175126585739e-01 -6.6094342347207166e-02 0.0000000000000000e+00  1.0711489139080321e-01 -3.8460275893690671e-01 0.0000000000000000e+00  1.0925908371501261e+00 -3.8039337086938940e-01 0.0000000000000000e+00  1.0579661158601823e+00 2.6999703143437498e-01 0.0000000000000000e+00  1.1226050482274155e+00 -2.9322694190916787e-01 0.0000000000000000e+00  3.7160495295499285e-01 9.9352392836663486e-02 0.0000000000000000e+00  -2.8262774032408627e-01 -1.2023956003930292e-01 0.0000000000000000e+00  9.9524742957957224e-01 4.6800232821891427e-02 0.0000000000000000e+00  4.3625391356233312e-01 -2.9295795756431214e-01 0.0000000000000000e+00  6.5625009818488977e-01 0.0000000000000000e+00 0.0000000000000000e+00  8.6716071471081713e-01 -3.5402798807418694e-02 0.0000000000000000e+00  6.6091036542493520e-01 3.1280636649525051e-01 0.0000000000000000e+00  7.4073784563953438e-01 2.8293171726678997e-02 0.0000000000000000e+00  1.4595256245077508e+00 -3.7411959616566556e-02 0.0000000000000000e+00  1.3927213461861860e+00 2.3268084889762078e-01 0.0000000000000000e+00  1.9817294640762630e+00 1.3761221020105580e-01 0.0000000000000000e+00  1.2349433982028797e+00 4.5713813691071742e-01 0.0000000000000000e+00  1.1301388807324091e+00 1.2709246601482598e+00 0.0000000000000000e+00  1.5265088674285849e+00 -9.7549871905829100e-01 0.0000000000000000e+00  5.5359852811113630e-01 1.0992233797049964e+00 0.0000000000000000e+00  1.8699085900009393e-01 2.9680866223686775e-01 0.0000000000000000e+00  7.8607493343511703e-01 -2.5464320949510916e-01 0.0000000000000000e+00  1.5872237209754825e+00 -6.8512507118982824e-01 0.0000000000000000e+00  2.4227675654051817e+00 1.3569212162861870e+00 0.0000000000000000e+00  1.8037352634106261e+00 1.0162653768946253e-01 0.0000000000000000e+00  5.9084932779672764e-02 -5.4844655813162904e-02 0.0000000000000000e+00  9.5503456102855155e-01 -1.0534129328207902e+00 0.0000000000000000e+00  2.2597309845408989e-01 3.3218319983246752e-01 0.0000000000000000e+00  9.7460933446096215e-02 5.7019412343240283e-01 0.0000000000000000e+00  1.8432007425494630e+00 -5.6243178421657525e-01 0.0000000000000000e+00  -5.3413636347398000e-02 8.3273721537433532e-01 0.0000000000000000e+00  1.4798738972380887e+00 4.7041102915323524e-01 0.0000000000000000e+00  1.4574970195119092e+00 -7.0832837890463005e-02 0.0000000000000000e+00  1.1611466304211733e+00 6.0761356816976086e-01 0.0000000000000000e+00  1.1654261161170734e+00 -9.3482338339505600e-01 0.0000000000000000e+00  1.1742249760691190e+00 5.8041738302485912e-01 0.0000000000000000e+00  -1.1113493345711181e-01 6.3389213432152647e-02 0.0000000000000000e+00  1.3092681806797675e+00 2.8417781577800838e-01 0.0000000000000000e+00  1.6988548659174472e+00 5.6063664293888293e-01 0.0000000000000000e+00  9.6587720083952100e-01 9.0529136283896150e-01 0.0000000000000000e+00  1.2229338122891300e+00 8.5548075668027712e-01 0.0000000000000000e+00  7.7887351193410892e-01 -3.3180816203209362e-01 0.0000000000000000e+00  1.0727202632655253e+00 1.1428019981166755e-01 0.0000000000000000e+00  1.4683139989946683e+00 -2.8636065683194545e-01 0.0000000000000000e+00  1.8126087060725395e+00 -2.6257275132775365e-01 0.0000000000000000e+00  1.4640275872237074e+00 4.7331785131107057e-01 0.0000000000000000e+00  8.5896036933410314e-01 7.7296001293787664e-02 0.0000000000000000e+00  1.0353835710769506e+00 -3.5787718145515179e-02 0.0000000000000000e+00  4.4551966854141584e-01 1.3589531427420520e-01 0.0000000000000000e+00  1.5765080423384497e+00 -1.5052610317562295e-02 0.0000000000000000e+00  1.8150470145446331e+00 -7.1193958503066201e-01 0.0000000000000000e+00  1.2120630036592948e+00 -7.1173474721597096e-01 0.0000000000000000e+00  4.1909639185062048e-01 1.5889415097398031e-02 0.0000000000000000e+00  1.4223307314207916e+00 3.5658335590342005e-01 0.0000000000000000e+00  9.7677425347764346e-01 2.0728560006210123e-01 0.0000000000000000e+00  5.5150423871371723e-01 -1.1955912199440467e-01 0.0000000000000000e+00  6.2599864642771974e-01 1.4449322529444955e-01 0.0000000000000000e+00  1.9995175747564362e-01 1.2050722995101927e-01 0.0000000000000000e+00  4.5814265427263728e-01 -6.8918562048360077e-01 0.0000000000000000e+00  1.0033079387691530e+00 1.8341808252502351e-01 0.0000000000000000e+00  1.1811402181227189e+00 2.4755922157571211e-01 0.0000000000000000e+00  1.2393128126375152e+00 -4.1705299241214178e-01 0.0000000000000000e+00  1.0716487398014563e+00 3.6049356269209090e-02 0.0000000000000000e+00  1.1225256129767716e+00 4.5444306689427894e-02 0.0000000000000000e+00  1.8738217870920824e+00 -4.7507316969799324e-01 0.00000000000000