<?xml version="1.0"?>
<VTKFile type="UnstructuredGrid"  version="0.1"  >
<UnstructuredGrid>
<Piece  NumberOfPoints="4269" NumberOfCells="8234">
<Points>
<DataArray  type="Float64"  NumberOfComponents="3"  format="ascii">0 1 0  0 0 0  7.5 0 0  7.5 1 0  1.197537668119028 0.5812868930080463 0  1.2 0.55 0  1.197537668119028 0.5187131069919538 0  1.190211303259031 0.4881966011250105 0  1.178201304837674 0.4592019000520907 0  1.161803398874989 0.4324429495415054 0  1.141421356237309 0.4085786437626905 0  1.117557050458495 0.3881966011250105 0  1.090798099947909 0.3717986951623264 0  1.06180339887499 0.3597886967409693 0  1.031286893008046 0.3524623318809725 0  1 0.35 0  0.9687131069919538 0.3524623318809725 0  0.9381966011250105 0.3597886967409694 0  0.9092019000520906 0.3717986951623264 0  0.8824429495415054 0.3881966011250105 0  0.8585786437626904 0.4085786437626905 0  0.8381966011250105 0.4324429495415054 0  0.8217986951623264 0.4592019000520907 0  0.8097886967409692 0.4881966011250107 0  0.8024623318809725 0.5187131069919539 0  0.8 0.55 0  0.8024623318809725 0.5812868930080463 0  0.8097886967409693 0.6118033988749896 0  0.8217986951623264 0.6407980999479095 0  0.8381966011250105 0.6675570504584947 0  0.8585786437626906 0.6914213562373096 0  0.8824429495415054 0.7118033988749896 0  0.9092019000520907 0.7282013048376736 0  0.9381966011250106 0.7402113032590307 0  0.9687131069919539 0.7475376681190276 0  1 0.75 0  1.031286893008046 0.7475376681190276 0  1.06180339887499 0.7402113032590307 0  1.090798099947909 0.7282013048376736 0  1.117557050458495 0.7118033988749896 0  1.141421356237309 0.6914213562373095 0  1.161803398874989 0.6675570504584947 0  1.178201304837674 0.6407980999479094 0  1.190211303259031 0.6118033988749896 0  3.75 0 0  3.75 1 0  1.875 0 0  1.875 1 0  0.9375 0 0  0.9375 1 0  1.40625 1 0  5.625 1 0  5.625 0 0  2.8125 1 0  2.8125 0 0  4.6875 0 0  4.6875 1 0  6.5625 0 0  6.5625 1 0  5.15625 0.5 0  4.21875 0.5 0  2.34375 0.5 0  3.28125 0.5 0  6.09375 0.5 0  7.5 0.5 0  6.897916666666666 0.5 0  1.842708333333333 0.5 0  0 0.5 0  0.46875 0 0  5.625 0.5302734375 0  7.03125 0 0  6.09375 1 0  2.8125 0.4697265625 0  3.28125 0 0  2.34375 1 0  2.34375 0 0  3.75 0.4697265625 0  4.21875 0 0  4.21875 1 0  4.6875 0.5302734375 0  3.28125 1 0  5.15625 0 0  6.09375 0 0  5.15625 1 0  0.46875 1 0  1.40625 0 0  7.03125 1 0  0.3954638734376499 0.5975780249976004 0  6.495833333333334 0.4072265624999998 0  5.859375 0.25 0  4.905729166666666 0.26513671875 0  4.453125 0.25 0  3.531770833333333 0.73486328125 0  3.968229166666667 0.73486328125 0  2.594270833333333 0.73486328125 0  3.030729166666667 0.73486328125 0  6.328125 0.75 0  7.198958333333334 0.3125000000000002 0  7.198958333333334 0.6874999999999998 0  5.390625 0.25 0  0 0.25 0  2.109375 0.75 0  2.109375 0.25 0  1.51921323205749 0.3418883887525936 0  1.522346610178253 0.6811769608297746 0  5.375456746419271 0.75 0  4.921875 0.76513671875 0  4.437956746419271 0.75 0  3.984375 0.23486328125 0  3.500456746419271 0.25 0  2.578125 0.23486328125 0  3.046875 0.23486328125 0  5.874543253580729 0.75 0  6.642123189445656 0.6909095493086836 0  6.746354166666666 0.2391688368055553 0  0.3197109619185111 0.2850049285972083 0  6.328125 0 0  0.6313375889370429 0.2351325552547357 0  0 0.75 0  6.252283381534729 0.2693808819694041 0  0.234375 1 0  6.948437500000001 0.7543055555555555 0  0.5934018769555939 0.7694151657947577 0  1.858854166666667 0.75 0  1.858854166666667 0.25 0  1.640625 0 0  2.093229166666667 0.5 0  7.5 0.25 0  3.282227579752604 0.75 0  7.5 0.75 0  1.171875 0 0  1.303539853147731 0.2235426933121065 0  5.148177083333333 0.2575683593749998 0  2.351822916666667 0.742431640625 0  1.640625 1 0  4.202380413457425 0.7645435094236485 0  3.047822985053062 0.4701848030090332 0  2.577177014946938 0.4701848030090332 0  4.672792740482199 0.76513671875 0  4.922822985053062 0.5298151969909668 0  5.390593497949761 0.5156244924311331 0  5.610292740482199 0.76513671875 0  3.516602579752604 0.5 0  4.45496853898097 0.4865915990446593 0  5.85753146101903 0.4865915990446593 0  3.749511210123698 0.23486328125 0  3.983397420247396 0.4999999999999999 0  2.343497975411212 0.2346270081980111 0  4.219002024588788 0.2346270081980111 0  0.703125 0 0  2.8125 0.2343755075688669 0  3.046875 0 0  2.578125 0 0  3.515625 0 0  3.984375 0 0  4.453125 1 0  5.390625 1 0  2.109375 0 0  2.109375 1 0  5.625 0.2921402030705575 0  5.390625 0 0  7.265625 0 0  6.796875 0 0  6.328125 1 0  3.046875 1 0  2.578125 1 0  3.984375 1 0  3.515625 1 0  4.453125 0 0  4.921875 0 0  5.859375 0 0  0.703125 1 0  1.171875 1 0  7.265625 1 0  4.921875 1 0  5.859375 1 0  0.234375 0 0  6.796875 1 0  6.980310975276531 0.2285890127127066 0  5.149170481934885 0.772689292163473 0  3.274170481934884 0.2273107078365268 0  6.101334126790364 0.7722468376159667 0  4.678005340872584 0.3000799877067239 0  2.8125 0.6921051326382495 0  3.75 0.6921051326382495 0  0.3515624999999999 0.8134571721668546 0  0.4990405774417521 0.4070099317153735 0  0.1789273931360182 0.625 0  6.31239060814315 0.5298877111157968 0  6.456979773992304 0.1917956348713352 0  6.699870808919271 0.4406293402777773 0  1.337539480965883 0.7944303676599538 0  6.058675797563041 0.2019812164653516 0  0.8203125 0.1643029084422534 0  0.1480856513011711 0.375 0  1.090769294689562 0.1719186776982972 0  7.291088163206459 0.5 0  7.094502414936563 0.5197902199074071 0  0.6046212059042245 0.5730066483871106 0  1.707231580809486 0.6342709161352207 0  1.685961352504593 0.8193269193390785 0  1.374721602852827 0.4600373025865813 0  6.486415510043844 0.5916440776477192 0  1.5234375 0.1508863828685116 0  1.707925830421689 0.3657739208189008 0  0.1674513225045584 0.8278776664019765 0  7.138268756771176 0.1438183366439137 0  7.1484375 0.8616388888888887 0  7.328562530764119 0.819498462930605 0  4.101073710123698 0.3678637200736647 0  1.693878467219965 0.1911955120941053 0  1.577566745468488 0.5110082404081502 0  6.6796875 0.8653871806883484 0  6.498039504430512 0.825568433346395 0  0.7562556668576472 0.8333197949571929 0  4.101045914668806 0.6255195807449272 0  5.030745188395182 0.382829047309028 0  2.476364945868651 0.6095868094762166 0  2.729359843907322 0.8460525663191247 0  2.9296875 0.8740763101564099 0  3.163518307559356 0.6254622797994247 0  3.666859843907322 0.8460525663191247 0  3.8671875 0.8740763101564099 0  4.8046875 0.12592368984359 0  3.14936031382311 0.8606990583876851 0  2.4609375 0.8747622921397776 0  5.023140791101972 0.1392266772452574 0  0 0.125 0  0.1759922923594607 0.1727589856739889 0  4.5703125 0.125 0  7.327755777818006 0.1766156770456191 0  5.5078125 0.125 0  5.719712725029036 0.1460701015352787 0  4.327848962028002 0.3674169956512513 0  5.982681121544351 0.3692637923021713 0  3.398926289876302 0.6245417594909667 0  5.281756792511996 0.3827993367299961 0  2.226822645963271 0.6252438868405666 0  2.234390064317166 0.8676616584526566 0  5.2734375 0.125 0  1.96796875 0.382568359375 0  2.234651037971999 0.3674169956512511 0  1.984114583333333 0.132568359375 0  1.9921875 0.875 0  1.984114583333333 0.632568359375 0  5.748733794462357 0.8678269127183313 0  3.3984375 0.875456329184688 0  1.512925924995415 0.8582958012121853 0  1.359299372802969 0.6275861864990343 0  4.810521420483513 0.4041767793635395 0  0.2996213306116602 0.455339710363317 0  5.999933717403708 0.6388425470751088 0  5.250033449003657 0.6388713364551682 0  3.631676045992918 0.3525406652400928 0  4.3359375 0.8816499670325881 0  4.343577437052484 0.6116511299909198 0  3.375033449003656 0.3611286635448316 0  5.763152151652243 0.6249404690537395 0  4.549347848347757 0.6249404690537396 0  5.5004588702411 0.6403667365776566 0  5.976118394847484 0.8816230218343086 0  5.054722486865804 0.6338007028640954 0  3.164542163493752 0.3520519332736524 0  2.445407482032355 0.3672168403687257 0  4.8046875 0.882568359375 0  4.1015625 0.117431640625 0  2.4609375 0.117431640625 0  2.695556894938151 0.3520510350344335 0  2.929443105061849 0.3520510350344335 0  3.881979231817319 0.3670559016511187 0  3.8671875 0.117431640625 0  4.805389247695744 0.6470047893641744 0  3.399370721942191 0.1184066543556767 0  5.274370721942192 0.881593345644323 0  3.618253274934649 0.1316869186284249 0  2.6953125 0.1171877537844335 0  2.9296875 0.1171877537844335 0  2.21873344389451 0.125 0  4.3359375 0.1171877625080073 0  0.6659898565672709 0.3986593551313873 0  7.363359022954956 0.3481046411219251 0  7.363359022954956 0.6518953588780749 0  5.487719392831826 0.3828237631077121 0  2.695054578344725 0.5809158475691247 0  2.944553877887707 0.5964065668438148 0  0.3515625 0.1201898858097106 0  5.5078125 1 0  4.5703125 1 0  5.031746201297604 0.882568359375 0  3.1640625 0 0  6.2109375 1 0  6.186845385763124 0.6336356480571081 0  4.1015625 1 0  6.810399074069772 0.6495574751396682 0  0.4740615253480797 0.2509287743856873 0  7.052064303830151 0.3684417917792242 0  6.195177069665382 0.1216488332168849 0  5.72300154718324 0.4112068202852788 0  3.879157465495092 0.6111892850691246 0  3.645760045247695 0.5809158475691247 0  6.868257400485771 0.3427840810237202 0  6.612030892260864 0.1521752713064389 0  6.615666885941117 0.3151079644097221 0  4.04296875 0.8633718902669071 0  1.183031453639096 0.8486801864185936 0  6.9140625 0 0  6.859079526500421 0.1398292786950638 0  6.808232443325651 0.7957411753922057 0  6.9140625 1 0  4.544955211100143 0.3675874343205077 0  1.0546875 1 0  6.122060236165557 0.3316791557072867 0  0.5859375 0 0  5.9765625 0 0  5.44921875 0.870984788733638 0  4.51171875 0.870984788733638 0  0.7608354256382215 0.2931261274224557 0  6.386875332239937 0.3156583003094978 0  6.985654756850997 0.6147408423643147 0  6.223797257919172 0.8535621912121121 0  5.936822413218736 0.1338376546337823 0  6.23933008800134 0.4095573603773768 0  0.5414022462152697 0.1305482677949959 0  6.331360438104348 0.1370086318183389 0  0.956404929269873 0.1374266563647954 0  1.2890625 1 0  0.691305981127761 0.6764829884281737 0  3.531251607241209 0.8678916320952239 0  2.59787442813022 
[...]
<PointData  Vectors="f_71627"> 
<DataArray  type="Float64"  Name="f_71627"  NumberOfComponents="3" format="ascii">0.0000000000000000e+00 0.0000000000000000e+00 0.0000000000000000e+00  0.0000000000000000e+00 0.0000000000000000e+00 0.0000000000000000e+00  0.0000000000000000e+00 0.0000000000000000e+00 0.0000000000000000e+00  0.0000000000000000e+00 0.0000000000000000e+00 0.0000000000000000e+00  0.0000000000000000e+00 0.0000000000000000e+00 0.0000000000000000e+00  0.0000000000000000e+00 0.0000000000000000e+00 0.0000000000000000e+00  0.0000000000000000e+00 0.0000000000000000e+00 0.0000000000000000e+00  0.0000000000000000e+00 0.0000000000000000e+00 0.0000000000000000e+00  0.0000000000000000e+00 0.0000000000000000e+00 0.0000000000000000e+00  0.0000000000000000e+00 0.0000000000000000e+00 0.0000000000000000e+00  0.0000000000000000e+00 0.0000000000000000e+00 0.0000000000000000e+00  0.0000000000000000e+00 0.0000000000000000e+00 0.0000000000000000e+00  0.0000000000000000e+00 0.0000000000000000e+00 0.0000000000000000e+00  0.0000000000000000e+00 0.0000000000000000e+00 0.0000000000000000e+00  0.0000000000000000e+00 0.0000000000000000e+00 0.0000000000000000e+00  0.0000000000000000e+00 0.0000000000000000e+00 0.0000000000000000e+00  0.0000000000000000e+00 0.0000000000000000e+00 0.0000000000000000e+00  0.0000000000000000e+00 0.0000000000000000e+00 0.0000000000000000e+00  0.0000000000000000e+00 0.0000000000000000e+00 0.0000000000000000e+00  0.0000000000000000e+00 0.0000000000000000e+00 0.0000000000000000e+00  0.0000000000000000e+00 0.0000000000000000e+00 0.0000000000000000e+00  0.0000000000000000e+00 0.0000000000000000e+00 0.0000000000000000e+00  0.0000000000000000e+00 0.0000000000000000e+00 0.0000000000000000e+00  0.0000000000000000e+00 0.0000000000000000e+00 0.0000000000000000e+00  0.0000000000000000e+00 0.0000000000000000e+00 0.0000000000000000e+00  0.0000000000000000e+00 0.0000000000000000e+00 0.0000000000000000e+00  0.0000000000000000e+00 0.0000000000000000e+00 0.0000000000000000e+00  0.0000000000000000e+00 0.0000000000000000e+00 0.0000000000000000e+00  0.0000000000000000e+00 0.0000000000000000e+00 0.0000000000000000e+00  0.0000000000000000e+00 0.0000000000000000e+00 0.0000000000000000e+00  0.0000000000000000e+00 0.0000000000000000e+00 0.0000000000000000e+00  0.0000000000000000e+00 0.0000000000000000e+00 0.0000000000000000e+00  0.0000000000000000e+00 0.0000000000000000e+00 0.0000000000000000e+00  0.0000000000000000e+00 0.0000000000000000e+00 0.0000000000000000e+00  0.0000000000000000e+00 0.0000000000000000e+00 0.0000000000000000e+00  0.0000000000000000e+00 0.0000000000000000e+00 0.0000000000000000e+00  0.0000000000000000e+00 0.0000000000000000e+00 0.0000000000000000e+00  0.0000000000000000e+00 0.0000000000000000e+00 0.0000000000000000e+00  0.0000000000000000e+00 0.0000000000000000e+00 0.0000000000000000e+00  0.0000000000000000e+00 0.0000000000000000e+00 0.0000000000000000e+00  0.0000000000000000e+00 0.0000000000000000e+00 0.0000000000000000e+00  0.0000000000000000e+00 0.0000000000000000e+00 0.0000000000000000e+00  0.0000000000000000e+00 0.0000000000000000e+00 0.0000000000000000e+00  0.0000000000000000e+00 0.0000000000000000e+00 0.0000000000000000e+00  0.0000000000000000e+00 0.0000000000000000e+00 0.0000000000000000e+00  0.0000000000000000e+00 0.0000000000000000e+00 0.0000000000000000e+00  0.0000000000000000e+00 0.0000000000000000e+00 0.0000000000000000e+00  0.0000000000000000e+00 0.0000000000000000e+00 0.0000000000000000e+00  0.0000000000000000e+00 0.0000000000000000e+00 0.0000000000000000e+00  0.0000000000000000e+00 0.0000000000000000e+00 0.0000000000000000e+00  0.0000000000000000e+00 0.0000000000000000e+00 0.0000000000000000e+00  0.0000000000000000e+00 0.0000000000000000e+00 0.0000000000000000e+00  0.0000000000000000e+00 0.0000000000000000e+00 0.0000000000000000e+00  0.0000000000000000e+00 0.0000000000000000e+00 0.0000000000000000e+00  0.0000000000000000e+00 0.0000000000000000e+00 0.0000000000000000e+00  0.0000000000000000e+00 0.0000000000000000e+00 0.0000000000000000e+00  0.0000000000000000e+00 0.0000000000000000e+00 0.0000000000000000e+00  0.0000000000000000e+00 0.0000000000000000e+00 0.0000000000000000e+00  0.0000000000000000e+00 0.0000000000000000e+00 0.0000000000000000e+00  1.5449795873009802e+00 -9.6643745659838654e-01 0.0000000000000000e+00  1.8570195692636506e+00 -9.6577889194032440e-01 0.0000000000000000e+00  2.0069312802696713e+00 1.0169031527781092e+00 0.0000000000000000e+00  2.0484760229523733e+00 -2.0419412581779489e-01 0.0000000000000000e+00  1.4630033311192630e+00 -2.0572369677135388e-01 0.0000000000000000e+00  1.5000002119992697e+00 0.0000000000000000e+00 0.0000000000000000e+00  1.6799356893075936e+00 8.3316923570562462e-01 0.0000000000000000e+00  1.9408251264914818e+00 -1.5987394056230049e+00 0.0000000000000000e+00  1.5000002119992697e+00 0.0000000000000000e+00 0.0000000000000000e+00  0.0000000000000000e+00 0.0000000000000000e+00 0.0000000000000000e+00  1.7106905395043017e+00 4.8826768046803054e-01 0.0000000000000000e+00  0.0000000000000000e+00 0.0000000000000000e+00 0.0000000000000000e+00  0.0000000000000000e+00 0.0000000000000000e+00 0.0000000000000000e+00  1.5976378416641710e+00 -5.0104367891079526e-01 0.0000000000000000e+00  0.0000000000000000e+00 0.0000000000000000e+00 0.0000000000000000e+00  0.0000000000000000e+00 0.0000000000000000e+00 0.0000000000000000e+00  0.0000000000000000e+00 0.0000000000000000e+00 0.0000000000000000e+00  1.5135476255042286e+00 5.0808883238066027e-01 0.0000000000000000e+00  0.0000000000000000e+00 0.0000000000000000e+00 0.0000000000000000e+00  0.0000000000000000e+00 0.0000000000000000e+00 0.0000000000000000e+00  1.5023047119936987e+00 8.9984299477795293e-01 0.0000000000000000e+00  0.0000000000000000e+00 0.0000000000000000e+00 0.0000000000000000e+00  0.0000000000000000e+00 0.0000000000000000e+00 0.0000000000000000e+00  0.0000000000000000e+00 0.0000000000000000e+00 0.0000000000000000e+00  0.0000000000000000e+00 0.0000000000000000e+00 0.0000000000000000e+00  0.0000000000000000e+00 0.0000000000000000e+00 0.0000000000000000e+00  0.0000000000000000e+00 0.0000000000000000e+00 0.0000000000000000e+00  0.0000000000000000e+00 0.0000000000000000e+00 0.0000000000000000e+00  1.3587660393442653e+00 -5.2287417193126212e-02 0.0000000000000000e+00  1.6530725368368422e+00 -5.6596168825185034e-01 0.0000000000000000e+00  9.1406641000781541e-01 5.2023324758427103e-01 0.0000000000000000e+00  7.5470718494352185e-01 1.7323264096886046e-01 0.0000000000000000e+00  1.7391405791876375e+00 4.2573471071394586e-01 0.0000000000000000e+00  3.3796652643948222e-01 1.1394037071768168e+00 0.0000000000000000e+00  8.1964069396311967e-01 -7.9200185999431383e-01 0.0000000000000000e+00  1.0989705515807813e+00 2.6448604912309387e-01 0.0000000000000000e+00  5.5601924957200954e-01 -6.8143962776245848e-01 0.0000000000000000e+00  1.0011889986492826e+00 -3.9079196720397369e-01 0.0000000000000000e+00  1.1251773883467311e+00 1.7892648406758188e-01 0.0000000000000000e+00  1.0974760579254599e+00 6.0843575891105806e-01 0.0000000000000000e+00  1.4887752334955124e+00 -4.5419544225791009e-01 0.0000000000000000e+00  1.1250001589994523e+00 0.0000000000000000e+00 0.0000000000000000e+00  -1.6969948561276885e-01 -4.0355477171715554e-01 0.0000000000000000e+00  1.6314559694679733e+00 -1.5537706617831673e-01 0.0000000000000000e+00  1.3528147808532605e+00 9.5959930935332138e-01 0.0000000000000000e+00  1.1261690420573167e+00 1.8700938492995541e-02 0.0000000000000000e+00  5.6322634188806819e-01 -7.0197030736173072e-01 0.0000000000000000e+00  1.4236553462144592e+00 4.8522155827172939e-02 0.0000000000000000e+00  2.4965599405101208e-01 4.7228530984751971e-01 0.0000000000000000e+00  8.7867370705936798e-01 -6.0188423574409844e-01 0.0000000000000000e+00  1.5816541170807250e+00 7.2155681102988745e-01 0.0000000000000000e+00  1.1190061555722701e+00 5.3905487418539821e-01 0.0000000000000000e+00  1.4603668023151959e+00 -5.4875838335083893e-01 0.0000000000000000e+00  1.0258832093235344e+00 8.4022825020291070e-01 0.0000000000000000e+00  7.5341894808579846e-01 -2.0020976594111103e-01 0.0000000000000000e+00  1.7564775819872580e+00 2.2026619776066678e-01 0.0000000000000000e+00  1.2406197259315377e+00 -1.0410619426299161e-01 0.0000000000000000e+00  0.0000000000000000e+00 0.0000000000000000e+00 0.0000000000000000e+00  1.2857452454928755e+00 -3.1660846177857954e-01 0.0000000000000000e+00  1.1250001589994523e+00 0.0000000000000000e+00 0.0000000000000000e+00  1.0426695624670235e+00 -4.5669659979140975e-01 0.0000000000000000e+00  0.0000000000000000e+00 0.0000000000000000e+00 0.0000000000000000e+00  5.6064710263292139e-01 8.7505880596313523e-01 0.0000000000000000e+00  1.0079085498366309e+00 1.8750579643246343e-01 0.0000000000000000e+00  9.0566172215349716e-01 -5.0607577147360250e-01 0.0000000000000000e+00  6.7040962342877308e-01 -6.0222314009503619e-01 0.0000000000000000e+00  0.0000000000000000e+00 0.0000000000000000e+00 0.0000000000000000e+00  1.8253131257163240e+00 -7.7820514371351834e-01 0.0000000000000000e+00  1.1250001589994523e+00 0.0000000000000000e+00 0.0000000000000000e+00  -2.4338523252256328e-01 9.3478459602090933e-03 0.0000000000000000e+00  1.1250001589994523e+00 0.0000000000000000e+00 0.0000000000000000e+00  0.0000000000000000e+00 0.0000000000000000e+00 0.0000000000000000e+00  1.9888730284258109e+00 4.1520429249280261e-01 0.0000000000000000e+00  9.3641558307312955e-01 -5.8037913647005102e-01 0.0000000000000000e+00  -5.6691172344362578e-02 8.6827993072048471e-01 0.0000000000000000e+00  0.0000000000000000e+00 0.0000000000000000e+00 0.0000000000000000e+00  3.3840746568404106e-01 -4.2691205116368741e-01 0.0000000000000000e+00  1.9369496635485859e+00 -9.5827946580770063e-01 0.0000000000000000e+00  1.6712357563439748e+00 5.4100978471209671e-01 0.0000000000000000e+00  1.0013224087005741e+00 6.4337691971871314e-01 0.0000000000000000e+00  1.7617471222517251e+00 1.2640023231059980e-01 0.0000000000000000e+00  1.5571916193955262e+00 -7.8063262055351912e-01 0.0000000000000000e+00  4.6288760622481190e-01 3.4043033291279373e-01 0.0000000000000000e+00  1.7877120845298600e+00 1.0608328197586301e+00 0.0000000000000000e+00  1.9239048273813333e+00 8.4919547294109055e-01 0.0000000000000000e+00  1.5882792467473728e+00 1.1118916339949885e+00 0.0000000000000000e+00  7.4142102251748143e-01 2.9032901065076122e-01 0.0000000000000000e+00  1.6838376323223077e+00 -1.1655917822386019e+00 0.0000000000000000e+00  1.6888398523153410e+00 6.2507853171974248e-01 0.0000000000000000e+00  1.6581966038085894e+00 -2.8087153186300146e-01 0.0000000000000000e+00  0.0000000000000000e+00 0.0000000000000000e+00 0.0000000000000000e+00  1.5553734488454769e+00 -2.4580656524880742e-01 0.0000000000000000e+00  0.0000000000000000e+00 0.0000000000000000e+00 0.0000000000000000e+00  0.0000000000000000e+00 0.0000000000000000e+00 0.0000000000000000e+00  0.0000000000000000e+00 0.0000000000000000e+00 0.0000000000000000e+00  0.0000000000000000e+00 0.0000000000000000e+00 0.0000000000000000e+00  0.0000000000000000e+00 0.0000000000000000e+00 0.0000000000000000e+00  0.0000000000000000e+00 0.0000000000000000e+00 0.0000000000000000e+00  0.0000000000000000e+00 0.0000000000000000e+00 0.0000000000000000e+00  0.0000000000000000e+00 0.0000000000000000e+00 0.0000000000000000e+00  1.6914022594316998e+00 4.5698680275032666e-01 0.0000000000000000e+00  0.0000000000000000e+00 0.0000000000000000e+00 0.0000000000000000e+00  0.0000000000000000e+00 0.0000000000000000e+00 0.0000000000000000e+00  0.0000000000000000e+00 0.0000000000000000e+00 0.0000000000000000e+00  0.0000000000000000e+00 0.0000000000000000e+00 0.0000000000000000e+00  0.0000000000000000e+00 0.0000000000000000e+00 0.0000000000000000e+00  0.0000000000000000e+00 0.0000000000000000e+00 0.0000000000000000e+00  0.0000000000000000e+00 0.0000000000000000e+00 0.0000000000000000e+00  0.0000000000000000e+00 0.0000000000000000e+00 0.0000000000000000e+00  0.0000000000000000e+00 0.0000000000000000e+00 0.0000000000000000e+00  0.0000000000000000e+00 0.0000000000000000e+00 0.0000000000000000e+00  0.0000000000000000e+00 0.0000000000000000e+00 0.0000000000000000e+00  0.0000000000000000e+00 0.0000000000000000e+00 0.0000000000000000e+00  0.0000000000000000e+00 0.0000000000000000e+00 0.0000000000000000e+00  0.0000000000000000e+00 0.0000000000000000e+00 0.0000000000000000e+00  0.0000000000000000e+00 0.0000000000000000e+00 0.0000000000000000e+00  0.0000000000000000e+00 0.0000000000000000e+00 0.0000000000000000e+00  0.0000000000000000e+00 0.0000000000000000e+00 0.0000000000000000e+00  0.0000000000000000e+00 0.0000000000000000e+00 0.0000000000000000e+00  1.3421248737675877e+00 4.6544339362688619e-01 0.0000000000000000e+00  1.1166669916178817e+00 -4.3652069041541608e-01 0.0000000000000000e+00  1.6665432713460784e+00 -2.0327097144069792e-01 0.0000000000000000e+00  1.4166765819886462e+00 -1.5152728412886882e-01 0.0000000000000000e+00  1.2579431549817399e+00 6.6593284656690133e-01 0.0000000000000000e+00  1.1952645285108154e+00 -4.8378535344202012e-01 0.0000000000000000e+00  8.9578550239396904e-01 2.2811869250515279e-01 0.0000000000000000e+00  8.8810882835234650e-01 8.7373168643020676e-03 0.0000000000000000e+00  1.3686410026171405e+00 -1.9768952887995900e-01 0.0000000000000000e+00  1.3927993060718162e+00 -3.1839297627001183e-02 0.0000000000000000e+00  1.4498098735312539e+00 -8.1993432650999376e-01 0.0000000000000000e+00  1.3128644251078549e+00 -3.9867421889034727e-01 0.0000000000000000e+00  1.8606427503755789e+00 -2.5549712535512470e-02 0.0000000000000000e+00  1.9919154756259956e+00 -2.0326882133894342e-01 0.0000000000000000e+00  6.8526320413944775e-01 -5.6433373350199274e-02 0.0000000000000000e+00  1.4997100630389772e+00 -3.2959166789183436e-01 0.0000000000000000e+00  1.4050579425582406e+00 -4.2443942478329263e-02 0.0000000000000000e+00  1.9796425349022186e+00 6.5513845855960876e-03 0.0000000000000000e+00  1.3537155762923401e+00 3.8009580292555484e-01 0.0000000000000000e+00  1.5186734258732650e+00 1.0688276810887460e+00 0.0000000000000000e+00  1.1378615577711182e+00 -2.1696849813772137e-02 0.0000000000000000e+00  2.0366607472620255e+00 -1.0360600461116489e+00 0.0000000000000000e+00  1.4125434559748500e+00 -6.3210156331916068e-01 0.0000000000000000e+00  7.9204719671637447e-01 5.2692758716632604e-01 0.0000000000000000e+00  1.2997192804663462e+00 -8.9690138507176875e-01 0.0000000000000000e+00  1.2226755382576038e+00 2.4472149636007604e-01 0.0000000000000000e+00  4.8462666423698719e-01 6.9085224257313538e-01 0.0000000000000000e+00  8.4758360680347811e-01 -1.2769005496026949e-02 0.0000000000000000e+00  8.2862925316342828e-01 2.1397780091143884e-01 0.0000000000000000e+00  6.2090280685847632e-01 4.9577768803337968e-01 0.0000000000000000e+00  8.7465654782709124e-01 4.7335121103954542e-01 0.0000000000000000e+00  1.6159003783785391e+00 -9.5905112591897634e-01 0.0000000000000000e+00  9.2195533190455814e-01 -1.1184447704079939e-02 0.0000000000000000e+00  3.9139610138343139e-01 1.1253088733050065e+00 0.0000000000000000e+00  -5.6803176561404052e-02 -2.6160231228247611e-02 0.0000000000000000e+00  1.5036583939228784e-01 -4.6367833308996431e-01 0.0000000000000000e+00  1.0923040071596251e+00 3.9283584043103398e-01 0.0000000000000000e+00  1.1679084932662864e+00 -1.1921413065031627e+00 0.0000000000000000e+00  1.4019751136388725e+00 -4.2105383690881903e-01 0.0000000000000000e+00  1.1244536393079607e+00 1.4107762848475081e+00 0.0000000000000000e+00  7.9783925178702242e-01 -2.2057293231892598e-02 0.0000000000000000e+00  2.8705685417933802e-01 -3.0972436383941293e-01 0.0000000000000000e+00  9.8705618809544304e-01 -7.9851845261003362e-01 0.0000000000000000e+00  6.4954447482268973e-01 2.5395769833886300e-01 0.0000000000000000e+00  9.5693954163419559e-01 -2.1277905718777473e-01 0.0000000000000000e+00  2.9296629050737988e-01 1.5462431158982110e-01 0.0000000000000000e+00  -1.3614134734158659e-01 -2.2478919594344693e-01 0.0000000000000000e+00  6.6009234642019965e-01 1.9936141310316885e-01 0.0000000000000000e+00  1.5212895362277160e-01 -1.8490930563005314e-01 0.0000000000000000e+00  6.5625009274968049e-01 0.0000000000000000e+00 0.0000000000000000e+00  8.6880905110669460e-01 -4.0756940843721889e-02 0.0000000000000000e+00  7.6275899025710658e-01 2.3299854335166106e-01 0.0000000000000000e+00  8.2286013174936845e-01 3.2123598967187394e-01 0.0000000000000000e+00  1.3746929238152241e+00 7.9872354434343165e-02 0.0000000000000000e+00  9.7836323226908894e-01 2.3435789114472499e-01 0.0000000000000000e+00  2.0445456887762679e+00 4.5454183884051737e-02 0.0000000000000000e+00  1.2126937527784596e+00 2.6745845558042419e-01 0.0000000000000000e+00  1.0213515038848002e+00 7.9497988984994894e-01 0.0000000000000000e+00  1.5664702506413926e+00 -1.0555163897882160e+00 0.0000000000000000e+00  8.1063049941921650e-01 5.0155781969833169e-02 0.0000000000000000e+00  -7.1202040482383239e-02 1.4761037154408846e-01 0.0000000000000000e+00  7.1477498292922659e-01 -3.3058504158319413e-01 0.0000000000000000e+00  1.4987654200674729e+00 -1.1464460401238656e+00 0.0000000000000000e+00  2.0527188734417257e+00 2.2214002096576949e-01 0.0000000000000000e+00  1.5138806842101331e+00 -1.5278931180418986e-01 0.0000000000000000e+00  1.7771001904861083e-01 -9.0896561872886639e-02 0.0000000000000000e+00  1.1166521674963998e+00 -7.1035382905961586e-01 0.0000000000000000e+00  3.3751206856179383e-01 4.5353692189002298e-01 0.0000000000000000e+00  -2.4304075236246739e-01 3.6223745963067883e-01 0.0000000000000000e+00  1.8106617480146019e+00 -4.2510534214486090e-01 0.0000000000000000e+00  -9.6229740435421918e-01 3.0358800840304945e-01 0.0000000000000000e+00  1.4657163128802466e+00 6.8716676572716928e-01 0.0000000000000000e+00  1.4599588174738758e+00 -8.9778785528340135e-02 0.0000000000000000e+00  1.4853372611979141e+00 3.8607617702292052e-01 0.0000000000000000e+00  1.2277364038497298e+00 -1.0831331319059161e+00 0.0000000000000000e+00  1.4170387392523729e+00 1.0444367720809624e+00 0.0000000000000000e+00  -1.7694124888605536e-01 2.3676649803019138e-02 0.0000000000000000e+00  1.3500935559829370e+00 1.9379487373138726e-01 0.0000000000000000e+00  2.0567303690317384e+00 5.1226041205879858e-01 0.0000000000000000e+00  1.2769855113724975e+00 1.1791719371739744e+00 0.0000000000000000e+00  1.1198769941340838e+00 9.2219213153538704e-01 0.0000000000000000e+00  9.8092357954112797e-01 -2.9033965311084736e-01 0.0000000000000000e+00  1.1201422041876361e+00 4.7141763051272344e-02 0.0000000000000000e+00  1.6537841543727401e+00 -3.2748744728154311e-01 0.0000000000000000e+00  2.0486652351332588e+00 -5.4113503340899016e-01 0.0000000000000000e+00  1.8973400263463407e+00 1.2399779601604854e+00 0.0000000000000000e+00  8.5992298966414349e-01 4.5964664834609655e-02 0.0000000000000000e+00  8.0598022425467697e-01 2.0569452231046770e-02 0.0000000000000000e+00  6.5022776009952166e-01 6.6935895513531643e-02 0.0000000000000000e+00  1.3599175787505089e+00 -7.3922903909776849e-02 0.0000000000000000e+00  1.6710202435009471e+00 -6.2612686181559718e-01 0.0000000000000000e+00  1.4259058278546897e+00 -5.2795007015018658e-01 0.0000000000000000e+00  2.5957236361265357e-01 1.6940568664862379e-01 0.0000000000000000e+00  1.4926879489117497e+00 4.5731685460692156e-01 0.0000000000000000e+00  1.4232328227447160e+00 2.9127222332361613e-01 0.0000000000000000e+00  4.6035156377300412e-01 -1.5322100014532256e-01 0.0000000000000000e+00  8.2177566145928027e-01 2.4867325592837153e-01 0.0000000000000000e+00  2.2870604446610909e-01 1.8850223582978878e-01 0.0000000000000000e+00  5.5707970822264896e-01 -5.5602228685491317e-01 0.0000000000000000e+00  1.3272869974688348e+00 1.7935593924574095e-01 0.0000000000000000e+00  1.1357724775785230e+00 2.4873845370447772e-01 0.0000000000000000e+00  1.2585778004256041e+00 -4.5304426712833346e-01 0.0000000000000000e+00  1.3607138190535810e+00 2.2423166643160169e-01 0.0000000000000000e+00  1.2911569368400129e+00 1.2506520137228944e-01 0.0000000000000000e+00  1.8367480708191160e+00 -2.9480355784031920e-01 0.00000000