<?xml version="1.0"?>
<VTKFile type="UnstructuredGrid"  version="0.1"  >
<UnstructuredGrid>
<Piece  NumberOfPoints="4269" NumberOfCells="8234">
<Points>
<DataArray  type="Float64"  NumberOfComponents="3"  format="ascii">0 1 0  0 0 0  7.5 0 0  7.5 1 0  1.197537668119028 0.5812868930080463 0  1.2 0.55 0  1.197537668119028 0.5187131069919538 0  1.190211303259031 0.4881966011250105 0  1.178201304837674 0.4592019000520907 0  1.161803398874989 0.4324429495415054 0  1.141421356237309 0.4085786437626905 0  1.117557050458495 0.3881966011250105 0  1.090798099947909 0.3717986951623264 0  1.06180339887499 0.3597886967409693 0  1.031286893008046 0.3524623318809725 0  1 0.35 0  0.9687131069919538 0.3524623318809725 0  0.9381966011250105 0.3597886967409694 0  0.9092019000520906 0.3717986951623264 0  0.8824429495415054 0.3881966011250105 0  0.8585786437626904 0.4085786437626905 0  0.8381966011250105 0.4324429495415054 0  0.8217986951623264 0.4592019000520907 0  0.8097886967409692 0.4881966011250107 0  0.8024623318809725 0.5187131069919539 0  0.8 0.55 0  0.8024623318809725 0.5812868930080463 0  0.8097886967409693 0.6118033988749896 0  0.8217986951623264 0.6407980999479095 0  0.8381966011250105 0.6675570504584947 0  0.8585786437626906 0.6914213562373096 0  0.8824429495415054 0.7118033988749896 0  0.9092019000520907 0.7282013048376736 0  0.9381966011250106 0.7402113032590307 0  0.9687131069919539 0.7475376681190276 0  1 0.75 0  1.031286893008046 0.7475376681190276 0  1.06180339887499 0.7402113032590307 0  1.090798099947909 0.7282013048376736 0  1.117557050458495 0.7118033988749896 0  1.141421356237309 0.6914213562373095 0  1.161803398874989 0.6675570504584947 0  1.178201304837674 0.6407980999479094 0  1.190211303259031 0.6118033988749896 0  3.75 0 0  3.75 1 0  1.875 0 0  1.875 1 0  0.9375 0 0  0.9375 1 0  1.40625 1 0  5.625 1 0  5.625 0 0  2.8125 1 0  2.8125 0 0  4.6875 0 0  4.6875 1 0  6.5625 0 0  6.5625 1 0  5.15625 0.5 0  4.21875 0.5 0  2.34375 0.5 0  3.28125 0.5 0  6.09375 0.5 0  7.5 0.5 0  6.897916666666666 0.5 0  1.842708333333333 0.5 0  0 0.5 0  0.46875 0 0  5.625 0.5302734375 0  7.03125 0 0  6.09375 1 0  2.8125 0.4697265625 0  3.28125 0 0  2.34375 1 0  2.34375 0 0  3.75 0.4697265625 0  4.21875 0 0  4.21875 1 0  4.6875 0.5302734375 0  3.28125 1 0  5.15625 0 0  6.09375 0 0  5.15625 1 0  0.46875 1 0  1.40625 0 0  7.03125 1 0  0.3954638734376499 0.5975780249976004 0  6.495833333333334 0.4072265624999998 0  5.859375 0.25 0  4.905729166666666 0.26513671875 0  4.453125 0.25 0  3.531770833333333 0.73486328125 0  3.968229166666667 0.73486328125 0  2.594270833333333 0.73486328125 0  3.030729166666667 0.73486328125 0  6.328125 0.75 0  7.198958333333334 0.3125000000000002 0  7.198958333333334 0.6874999999999998 0  5.390625 0.25 0  0 0.25 0  2.109375 0.75 0  2.109375 0.25 0  1.51921323205749 0.3418883887525936 0  1.522346610178253 0.6811769608297746 0  5.375456746419271 0.75 0  4.921875 0.76513671875 0  4.437956746419271 0.75 0  3.984375 0.23486328125 0  3.500456746419271 0.25 0  2.578125 0.23486328125 0  3.046875 0.23486328125 0  5.874543253580729 0.75 0  6.642123189445656 0.6909095493086836 0  6.746354166666666 0.2391688368055553 0  0.3197109619185111 0.2850049285972083 0  6.328125 0 0  0.6313375889370429 0.2351325552547357 0  0 0.75 0  6.252283381534729 0.2693808819694041 0  0.234375 1 0  6.948437500000001 0.7543055555555555 0  0.5934018769555939 0.7694151657947577 0  1.858854166666667 0.75 0  1.858854166666667 0.25 0  1.640625 0 0  2.093229166666667 0.5 0  7.5 0.25 0  3.282227579752604 0.75 0  7.5 0.75 0  1.171875 0 0  1.303539853147731 0.2235426933121065 0  5.148177083333333 0.2575683593749998 0  2.351822916666667 0.742431640625 0  1.640625 1 0  4.202380413457425 0.7645435094236485 0  3.047822985053062 0.4701848030090332 0  2.577177014946938 0.4701848030090332 0  4.672792740482199 0.76513671875 0  4.922822985053062 0.5298151969909668 0  5.390593497949761 0.5156244924311331 0  5.610292740482199 0.76513671875 0  3.516602579752604 0.5 0  4.45496853898097 0.4865915990446593 0  5.85753146101903 0.4865915990446593 0  3.749511210123698 0.23486328125 0  3.983397420247396 0.4999999999999999 0  2.343497975411212 0.2346270081980111 0  4.219002024588788 0.2346270081980111 0  0.703125 0 0  2.8125 0.2343755075688669 0  3.046875 0 0  2.578125 0 0  3.515625 0 0  3.984375 0 0  4.453125 1 0  5.390625 1 0  2.109375 0 0  2.109375 1 0  5.625 0.2921402030705575 0  5.390625 0 0  7.265625 0 0  6.796875 0 0  6.328125 1 0  3.046875 1 0  2.578125 1 0  3.984375 1 0  3.515625 1 0  4.453125 0 0  4.921875 0 0  5.859375 0 0  0.703125 1 0  1.171875 1 0  7.265625 1 0  4.921875 1 0  5.859375 1 0  0.234375 0 0  6.796875 1 0  6.980310975276531 0.2285890127127066 0  5.149170481934885 0.772689292163473 0  3.274170481934884 0.2273107078365268 0  6.101334126790364 0.7722468376159667 0  4.678005340872584 0.3000799877067239 0  2.8125 0.6921051326382495 0  3.75 0.6921051326382495 0  0.3515624999999999 0.8134571721668546 0  0.4990405774417521 0.4070099317153735 0  0.1789273931360182 0.625 0  6.31239060814315 0.5298877111157968 0  6.456979773992304 0.1917956348713352 0  6.699870808919271 0.4406293402777773 0  1.337539480965883 0.7944303676599538 0  6.058675797563041 0.2019812164653516 0  0.8203125 0.1643029084422534 0  0.1480856513011711 0.375 0  1.090769294689562 0.1719186776982972 0  7.291088163206459 0.5 0  7.094502414936563 0.5197902199074071 0  0.6046212059042245 0.5730066483871106 0  1.707231580809486 0.6342709161352207 0  1.685961352504593 0.8193269193390785 0  1.374721602852827 0.4600373025865813 0  6.486415510043844 0.5916440776477192 0  1.5234375 0.1508863828685116 0  1.707925830421689 0.3657739208189008 0  0.1674513225045584 0.8278776664019765 0  7.138268756771176 0.1438183366439137 0  7.1484375 0.8616388888888887 0  7.328562530764119 0.819498462930605 0  4.101073710123698 0.3678637200736647 0  1.693878467219965 0.1911955120941053 0  1.577566745468488 0.5110082404081502 0  6.6796875 0.8653871806883484 0  6.498039504430512 0.825568433346395 0  0.7562556668576472 0.8333197949571929 0  4.101045914668806 0.6255195807449272 0  5.030745188395182 0.382829047309028 0  2.476364945868651 0.6095868094762166 0  2.729359843907322 0.8460525663191247 0  2.9296875 0.8740763101564099 0  3.163518307559356 0.6254622797994247 0  3.666859843907322 0.8460525663191247 0  3.8671875 0.8740763101564099 0  4.8046875 0.12592368984359 0  3.14936031382311 0.8606990583876851 0  2.4609375 0.8747622921397776 0  5.023140791101972 0.1392266772452574 0  0 0.125 0  0.1759922923594607 0.1727589856739889 0  4.5703125 0.125 0  7.327755777818006 0.1766156770456191 0  5.5078125 0.125 0  5.719712725029036 0.1460701015352787 0  4.327848962028002 0.3674169956512513 0  5.982681121544351 0.3692637923021713 0  3.398926289876302 0.6245417594909667 0  5.281756792511996 0.3827993367299961 0  2.226822645963271 0.6252438868405666 0  2.234390064317166 0.8676616584526566 0  5.2734375 0.125 0  1.96796875 0.382568359375 0  2.234651037971999 0.3674169956512511 0  1.984114583333333 0.132568359375 0  1.9921875 0.875 0  1.984114583333333 0.632568359375 0  5.748733794462357 0.8678269127183313 0  3.3984375 0.875456329184688 0  1.512925924995415 0.8582958012121853 0  1.359299372802969 0.6275861864990343 0  4.810521420483513 0.4041767793635395 0  0.2996213306116602 0.455339710363317 0  5.999933717403708 0.6388425470751088 0  5.250033449003657 0.6388713364551682 0  3.631676045992918 0.3525406652400928 0  4.3359375 0.8816499670325881 0  4.343577437052484 0.6116511299909198 0  3.375033449003656 0.3611286635448316 0  5.763152151652243 0.6249404690537395 0  4.549347848347757 0.6249404690537396 0  5.5004588702411 0.6403667365776566 0  5.976118394847484 0.8816230218343086 0  5.054722486865804 0.6338007028640954 0  3.164542163493752 0.3520519332736524 0  2.445407482032355 0.3672168403687257 0  4.8046875 0.882568359375 0  4.1015625 0.117431640625 0  2.4609375 0.117431640625 0  2.695556894938151 0.3520510350344335 0  2.929443105061849 0.3520510350344335 0  3.881979231817319 0.3670559016511187 0  3.8671875 0.117431640625 0  4.805389247695744 0.6470047893641744 0  3.399370721942191 0.1184066543556767 0  5.274370721942192 0.881593345644323 0  3.618253274934649 0.1316869186284249 0  2.6953125 0.1171877537844335 0  2.9296875 0.1171877537844335 0  2.21873344389451 0.125 0  4.3359375 0.1171877625080073 0  0.6659898565672709 0.3986593551313873 0  7.363359022954956 0.3481046411219251 0  7.363359022954956 0.6518953588780749 0  5.487719392831826 0.3828237631077121 0  2.695054578344725 0.5809158475691247 0  2.944553877887707 0.5964065668438148 0  0.3515625 0.1201898858097106 0  5.5078125 1 0  4.5703125 1 0  5.031746201297604 0.882568359375 0  3.1640625 0 0  6.2109375 1 0  6.186845385763124 0.6336356480571081 0  4.1015625 1 0  6.810399074069772 0.6495574751396682 0  0.4740615253480797 0.2509287743856873 0  7.052064303830151 0.3684417917792242 0  6.195177069665382 0.1216488332168849 0  5.72300154718324 0.4112068202852788 0  3.879157465495092 0.6111892850691246 0  3.645760045247695 0.5809158475691247 0  6.868257400485771 0.3427840810237202 0  6.612030892260864 0.1521752713064389 0  6.615666885941117 0.3151079644097221 0  4.04296875 0.8633718902669071 0  1.183031453639096 0.8486801864185936 0  6.9140625 0 0  6.859079526500421 0.1398292786950638 0  6.808232443325651 0.7957411753922057 0  6.9140625 1 0  4.544955211100143 0.3675874343205077 0  1.0546875 1 0  6.122060236165557 0.3316791557072867 0  0.5859375 0 0  5.9765625 0 0  5.44921875 0.870984788733638 0  4.51171875 0.870984788733638 0  0.7608354256382215 0.2931261274224557 0  6.386875332239937 0.3156583003094978 0  6.985654756850997 0.6147408423643147 0  6.223797257919172 0.8535621912121121 0  5.936822413218736 0.1338376546337823 0  6.23933008800134 0.4095573603773768 0  0.5414022462152697 0.1305482677949959 0  6.331360438104348 0.1370086318183389 0  0.956404929269873 0.1374266563647954 0  1.2890625 1 0  0.691305981127761 0.6764829884281737 0  3.531251607241209 0.8678916320952239 0  2.59787442813022 
[...]
<PointData  Vectors="f_71627"> 
<DataArray  type="Float64"  Name="f_71627"  NumberOfComponents="3" format="ascii">0.0000000000000000e+00 0.0000000000000000e+00 0.0000000000000000e+00  0.0000000000000000e+00 0.0000000000000000e+00 0.0000000000000000e+00  0.0000000000000000e+00 0.0000000000000000e+00 0.0000000000000000e+00  0.0000000000000000e+00 0.0000000000000000e+00 0.0000000000000000e+00  0.0000000000000000e+00 0.0000000000000000e+00 0.0000000000000000e+00  0.0000000000000000e+00 0.0000000000000000e+00 0.0000000000000000e+00  0.0000000000000000e+00 0.0000000000000000e+00 0.0000000000000000e+00  0.0000000000000000e+00 0.0000000000000000e+00 0.0000000000000000e+00  0.0000000000000000e+00 0.0000000000000000e+00 0.0000000000000000e+00  0.0000000000000000e+00 0.0000000000000000e+00 0.0000000000000000e+00  0.0000000000000000e+00 0.0000000000000000e+00 0.0000000000000000e+00  0.0000000000000000e+00 0.0000000000000000e+00 0.0000000000000000e+00  0.0000000000000000e+00 0.0000000000000000e+00 0.0000000000000000e+00  0.0000000000000000e+00 0.0000000000000000e+00 0.0000000000000000e+00  0.0000000000000000e+00 0.0000000000000000e+00 0.0000000000000000e+00  0.0000000000000000e+00 0.0000000000000000e+00 0.0000000000000000e+00  0.0000000000000000e+00 0.0000000000000000e+00 0.0000000000000000e+00  0.0000000000000000e+00 0.0000000000000000e+00 0.0000000000000000e+00  0.0000000000000000e+00 0.0000000000000000e+00 0.0000000000000000e+00  0.0000000000000000e+00 0.0000000000000000e+00 0.0000000000000000e+00  0.0000000000000000e+00 0.0000000000000000e+00 0.0000000000000000e+00  0.0000000000000000e+00 0.0000000000000000e+00 0.0000000000000000e+00  0.0000000000000000e+00 0.0000000000000000e+00 0.0000000000000000e+00  0.0000000000000000e+00 0.0000000000000000e+00 0.0000000000000000e+00  0.0000000000000000e+00 0.0000000000000000e+00 0.0000000000000000e+00  0.0000000000000000e+00 0.0000000000000000e+00 0.0000000000000000e+00  0.0000000000000000e+00 0.0000000000000000e+00 0.0000000000000000e+00  0.0000000000000000e+00 0.0000000000000000e+00 0.0000000000000000e+00  0.0000000000000000e+00 0.0000000000000000e+00 0.0000000000000000e+00  0.0000000000000000e+00 0.0000000000000000e+00 0.0000000000000000e+00  0.0000000000000000e+00 0.0000000000000000e+00 0.0000000000000000e+00  0.0000000000000000e+00 0.0000000000000000e+00 0.0000000000000000e+00  0.0000000000000000e+00 0.0000000000000000e+00 0.0000000000000000e+00  0.0000000000000000e+00 0.0000000000000000e+00 0.0000000000000000e+00  0.0000000000000000e+00 0.0000000000000000e+00 0.0000000000000000e+00  0.0000000000000000e+00 0.0000000000000000e+00 0.0000000000000000e+00  0.0000000000000000e+00 0.0000000000000000e+00 0.0000000000000000e+00  0.0000000000000000e+00 0.0000000000000000e+00 0.0000000000000000e+00  0.0000000000000000e+00 0.0000000000000000e+00 0.0000000000000000e+00  0.0000000000000000e+00 0.0000000000000000e+00 0.0000000000000000e+00  0.0000000000000000e+00 0.0000000000000000e+00 0.0000000000000000e+00  0.0000000000000000e+00 0.0000000000000000e+00 0.0000000000000000e+00  0.0000000000000000e+00 0.0000000000000000e+00 0.0000000000000000e+00  0.0000000000000000e+00 0.0000000000000000e+00 0.0000000000000000e+00  0.0000000000000000e+00 0.0000000000000000e+00 0.0000000000000000e+00  0.0000000000000000e+00 0.0000000000000000e+00 0.0000000000000000e+00  0.0000000000000000e+00 0.0000000000000000e+00 0.0000000000000000e+00  0.0000000000000000e+00 0.0000000000000000e+00 0.0000000000000000e+00  0.0000000000000000e+00 0.0000000000000000e+00 0.0000000000000000e+00  0.0000000000000000e+00 0.0000000000000000e+00 0.0000000000000000e+00  0.0000000000000000e+00 0.0000000000000000e+00 0.0000000000000000e+00  0.0000000000000000e+00 0.0000000000000000e+00 0.0000000000000000e+00  0.0000000000000000e+00 0.0000000000000000e+00 0.0000000000000000e+00  0.0000000000000000e+00 0.0000000000000000e+00 0.0000000000000000e+00  0.0000000000000000e+00 0.0000000000000000e+00 0.0000000000000000e+00  0.0000000000000000e+00 0.0000000000000000e+00 0.0000000000000000e+00  0.0000000000000000e+00 0.0000000000000000e+00 0.0000000000000000e+00  0.0000000000000000e+00 0.0000000000000000e+00 0.0000000000000000e+00  0.0000000000000000e+00 0.0000000000000000e+00 0.0000000000000000e+00  1.5679995080863640e+00 -1.2379557123156673e+00 0.0000000000000000e+00  2.0076130479504273e+00 3.1370267327359735e-01 0.0000000000000000e+00  1.6316917656060697e+00 1.1657604254225280e+00 0.0000000000000000e+00  1.9154559006152994e+00 9.4297838016622881e-01 0.0000000000000000e+00  1.4610997790987441e+00 -6.7946275290624214e-01 0.0000000000000000e+00  1.5000002286464265e+00 0.0000000000000000e+00 0.0000000000000000e+00  1.4949543974730224e+00 1.1668668375315305e+00 0.0000000000000000e+00  1.4182687825941434e+00 -1.2578072371780575e+00 0.0000000000000000e+00  1.5000002286464265e+00 0.0000000000000000e+00 0.0000000000000000e+00  0.0000000000000000e+00 0.0000000000000000e+00 0.0000000000000000e+00  1.6274956662433240e+00 1.2736545586844252e+00 0.0000000000000000e+00  0.0000000000000000e+00 0.0000000000000000e+00 0.0000000000000000e+00  0.0000000000000000e+00 0.0000000000000000e+00 0.0000000000000000e+00  1.8707702440058669e+00 -9.2568930452759679e-01 0.0000000000000000e+00  0.0000000000000000e+00 0.0000000000000000e+00 0.0000000000000000e+00  0.0000000000000000e+00 0.0000000000000000e+00 0.0000000000000000e+00  0.0000000000000000e+00 0.0000000000000000e+00 0.0000000000000000e+00  1.5484198131377926e+00 -4.8773583250526514e-01 0.0000000000000000e+00  0.0000000000000000e+00 0.0000000000000000e+00 0.0000000000000000e+00  0.0000000000000000e+00 0.0000000000000000e+00 0.0000000000000000e+00  1.6000883853374182e+00 5.7700435126711891e-01 0.0000000000000000e+00  0.0000000000000000e+00 0.0000000000000000e+00 0.0000000000000000e+00  0.0000000000000000e+00 0.0000000000000000e+00 0.0000000000000000e+00  0.0000000000000000e+00 0.0000000000000000e+00 0.0000000000000000e+00  0.0000000000000000e+00 0.0000000000000000e+00 0.0000000000000000e+00  0.0000000000000000e+00 0.0000000000000000e+00 0.0000000000000000e+00  0.0000000000000000e+00 0.0000000000000000e+00 0.0000000000000000e+00  0.0000000000000000e+00 0.0000000000000000e+00 0.0000000000000000e+00  1.3621596887838019e+00 -1.4845408211303632e-02 0.0000000000000000e+00  1.9130312807892280e+00 -2.3986117626617284e-01 0.0000000000000000e+00  8.1196212892397690e-01 6.3360074893994256e-02 0.0000000000000000e+00  8.9799473595128476e-01 -4.3308823609813707e-01 0.0000000000000000e+00  1.2769726956527960e+00 4.5780801715485081e-01 0.0000000000000000e+00  6.5666442533676372e-01 5.7039451012382003e-01 0.0000000000000000e+00  5.9402790514767678e-01 -1.0570661205116263e+00 0.0000000000000000e+00  1.3130886951623819e+00 -3.2334456430197045e-01 0.0000000000000000e+00  1.2472153240466465e-01 -5.0538675199232352e-01 0.0000000000000000e+00  6.0038157189114094e-01 -6.9915124140602181e-01 0.0000000000000000e+00  1.1460440552339559e+00 2.3707069739384723e-01 0.0000000000000000e+00  1.3169934878437217e+00 2.7804269923002559e-02 0.0000000000000000e+00  1.7663527385603455e+00 8.5301120281373016e-02 0.0000000000000000e+00  1.1250001714848199e+00 0.0000000000000000e+00 0.0000000000000000e+00  -2.7176531432514162e-01 3.9436821484715606e-01 0.0000000000000000e+00  2.3095808480181592e+00 7.2038737454581492e-01 0.0000000000000000e+00  8.0740921330468274e-01 6.6857891645683254e-01 0.0000000000000000e+00  1.8070379203143199e+00 -6.6773346254019361e-01 0.0000000000000000e+00  6.2388817457522694e-01 -6.2871057094323238e-02 0.0000000000000000e+00  1.4062345241585685e+00 -3.4940030241306447e-01 0.0000000000000000e+00  6.5500154241008413e-01 5.2882475534502804e-01 0.0000000000000000e+00  1.3857800619997571e+00 -7.1983834210639142e-01 0.0000000000000000e+00  9.3041944974761959e-01 4.9858104194878389e-01 0.0000000000000000e+00  1.3135191954680465e+00 3.1805052037323323e-01 0.0000000000000000e+00  1.6953215225320426e+00 -6.0502354055092700e-01 0.0000000000000000e+00  1.3526231086730551e+00 1.0845311296820338e-01 0.0000000000000000e+00  7.0268067229308606e-01 3.1654072704931852e-01 0.0000000000000000e+00  1.7124288278760680e+00 4.1904706099840849e-01 0.0000000000000000e+00  1.2324541566939817e+00 -7.7766911881772899e-02 0.0000000000000000e+00  0.0000000000000000e+00 0.0000000000000000e+00 0.0000000000000000e+00  1.2414522903259437e+00 -2.8894480294509989e-01 0.0000000000000000e+00  1.1250001714848199e+00 0.0000000000000000e+00 0.0000000000000000e+00  1.3190039289587494e+00 -5.4044005679654095e-01 0.0000000000000000e+00  0.0000000000000000e+00 0.0000000000000000e+00 0.0000000000000000e+00  8.2269158053581304e-01 1.0183523333906870e+00 0.0000000000000000e+00  1.0489335401474498e+00 2.2234957537658889e-01 0.0000000000000000e+00  6.1441110974124680e-01 -1.4230784420060152e-01 0.0000000000000000e+00  1.2675795094218381e+00 -4.2649012441511785e-01 0.0000000000000000e+00  0.0000000000000000e+00 0.0000000000000000e+00 0.0000000000000000e+00  1.5872531969431785e+00 4.0974528949839738e-02 0.0000000000000000e+00  1.1250001714848199e+00 0.0000000000000000e+00 0.0000000000000000e+00  -1.4208228661456761e-02 8.7393681225316855e-01 0.0000000000000000e+00  1.1250001714848199e+00 0.0000000000000000e+00 0.0000000000000000e+00  0.0000000000000000e+00 0.0000000000000000e+00 0.0000000000000000e+00  1.8885152611907396e+00 3.8449277861350090e-01 0.0000000000000000e+00  1.2723863924378653e+00 -7.9638133524379384e-01 0.0000000000000000e+00  8.2652928361072919e-01 5.6034347523829642e-01 0.0000000000000000e+00  0.0000000000000000e+00 0.0000000000000000e+00 0.0000000000000000e+00  3.2069925396710108e-01 1.3092535265143168e-01 0.0000000000000000e+00  2.2862490723590456e+00 -8.1066889904876549e-01 0.0000000000000000e+00  1.5213421422269351e+00 -8.9360967622865065e-02 0.0000000000000000e+00  1.2509051263221094e+00 3.6207744638212441e-01 0.0000000000000000e+00  1.5580973142392143e+00 -4.6207808674214157e-01 0.0000000000000000e+00  1.5518264604466687e+00 -1.3004322915793656e-01 0.0000000000000000e+00  5.5919892557335205e-01 7.9335322251602181e-01 0.0000000000000000e+00  1.7228804087518090e+00 1.1418438371965614e+00 0.0000000000000000e+00  1.5829109697890793e+00 9.9910837061604552e-01 0.0000000000000000e+00  1.4575982963123775e+00 3.3419396546413771e-01 0.0000000000000000e+00  7.4339413567326385e-01 -2.9191638674151027e-01 0.0000000000000000e+00  1.7761313889742314e+00 -1.5168368008042961e+00 0.0000000000000000e+00  9.5623843475352011e-01 2.7308218928527833e-01 0.0000000000000000e+00  1.7933863100722083e+00 1.6434756398557357e-01 0.0000000000000000e+00  0.0000000000000000e+00 0.0000000000000000e+00 0.0000000000000000e+00  1.6145448675868026e+00 -7.4683927915827486e-01 0.0000000000000000e+00  0.0000000000000000e+00 0.0000000000000000e+00 0.0000000000000000e+00  0.0000000000000000e+00 0.0000000000000000e+00 0.0000000000000000e+00  0.0000000000000000e+00 0.0000000000000000e+00 0.0000000000000000e+00  0.0000000000000000e+00 0.0000000000000000e+00 0.0000000000000000e+00  0.0000000000000000e+00 0.0000000000000000e+00 0.0000000000000000e+00  0.0000000000000000e+00 0.0000000000000000e+00 0.0000000000000000e+00  0.0000000000000000e+00 0.0000000000000000e+00 0.0000000000000000e+00  0.0000000000000000e+00 0.0000000000000000e+00 0.0000000000000000e+00  1.3778565285646698e+00 8.5289689008126124e-01 0.0000000000000000e+00  0.0000000000000000e+00 0.0000000000000000e+00 0.0000000000000000e+00  0.0000000000000000e+00 0.0000000000000000e+00 0.0000000000000000e+00  0.0000000000000000e+00 0.0000000000000000e+00 0.0000000000000000e+00  0.0000000000000000e+00 0.0000000000000000e+00 0.0000000000000000e+00  0.0000000000000000e+00 0.0000000000000000e+00 0.0000000000000000e+00  0.0000000000000000e+00 0.0000000000000000e+00 0.0000000000000000e+00  0.0000000000000000e+00 0.0000000000000000e+00 0.0000000000000000e+00  0.0000000000000000e+00 0.0000000000000000e+00 0.0000000000000000e+00  0.0000000000000000e+00 0.0000000000000000e+00 0.0000000000000000e+00  0.0000000000000000e+00 0.0000000000000000e+00 0.0000000000000000e+00  0.0000000000000000e+00 0.0000000000000000e+00 0.0000000000000000e+00  0.0000000000000000e+00 0.0000000000000000e+00 0.0000000000000000e+00  0.0000000000000000e+00 0.0000000000000000e+00 0.0000000000000000e+00  0.0000000000000000e+00 0.0000000000000000e+00 0.0000000000000000e+00  0.0000000000000000e+00 0.0000000000000000e+00 0.0000000000000000e+00  0.0000000000000000e+00 0.0000000000000000e+00 0.0000000000000000e+00  0.0000000000000000e+00 0.0000000000000000e+00 0.0000000000000000e+00  0.0000000000000000e+00 0.0000000000000000e+00 0.0000000000000000e+00  1.0499479148073747e+00 2.9906135351135826e-01 0.0000000000000000e+00  6.3800116877498969e-01 -6.5043886201839396e-01 0.0000000000000000e+00  1.5923587465564399e+00 4.0019549879302002e-01 0.0000000000000000e+00  1.2139950720274131e+00 -2.3949422171102117e-01 0.0000000000000000e+00  9.9810539121391095e-01 6.2376341908483002e-01 0.0000000000000000e+00  1.0409772344265997e+00 -8.3145705717266727e-01 0.0000000000000000e+00  1.2708879653722096e+00 -5.2362502545445166e-01 0.0000000000000000e+00  9.0380373646232282e-01 3.0675428706961442e-02 0.0000000000000000e+00  1.3555632472280410e+00 -1.5205391565448456e-01 0.0000000000000000e+00  1.3928065051636347e+00 -1.8494446065604620e-02 0.0000000000000000e+00  1.4481329643376368e+00 -9.2119637671415044e-01 0.0000000000000000e+00  1.5735438127282804e+00 -1.0544919513518765e-01 0.0000000000000000e+00  1.8434972141799566e+00 5.4484215709086814e-01 0.0000000000000000e+00  2.2191796291348811e+00 -2.8788086206658386e-01 0.0000000000000000e+00  7.7825483269490858e-01 -2.8518515496069502e-01 0.0000000000000000e+00  1.4249069469704616e+00 -3.2045377091010518e-01 0.0000000000000000e+00  1.4043654831453596e+00 -3.3668597160434230e-02 0.0000000000000000e+00  1.8973802319011190e+00 -1.3698563435903482e-02 0.0000000000000000e+00  1.3275642314124889e+00 4.8796348727488392e-01 0.0000000000000000e+00  1.3381856138115802e+00 7.3737550247050654e-01 0.0000000000000000e+00  1.1465668303210967e+00 3.3141103022009982e-02 0.0000000000000000e+00  1.9118420587438461e+00 -1.4722845657958330e+00 0.0000000000000000e+00  9.8250205243180389e-01 -6.4884147337456710e-01 0.0000000000000000e+00  -3.7112467712463859e-01 1.1316760429923474e+00 0.0000000000000000e+00  1.2241199055889902e+00 -3.1874776062321986e-01 0.0000000000000000e+00  1.2396724864742230e+00 1.0105227690238096e-01 0.0000000000000000e+00  4.3928732513285018e-01 -9.2522553484007108e-01 0.0000000000000000e+00  8.5135597567500254e-01 -3.8507552743029722e-03 0.0000000000000000e+00  6.3574457925313888e-01 2.3672669305053567e-01 0.0000000000000000e+00  1.4665866456535184e+00 2.6547142751826912e-02 0.0000000000000000e+00  1.2147736003004312e+00 -3.5602911979808985e-04 0.0000000000000000e+00  1.9593902172207616e+00 -3.9973302863630317e-01 0.0000000000000000e+00  1.3116690688811448e+00 -2.9909039888798705e-01 0.0000000000000000e+00  6.1933676775310054e-01 -3.6540175445331079e-02 0.0000000000000000e+00  -4.9787047235584969e-02 1.8500781419376347e-01 0.0000000000000000e+00  1.2189827289000149e-01 -2.1502840328243300e-01 0.0000000000000000e+00  1.1706318397317863e+00 4.2072794454842144e-01 0.0000000000000000e+00  7.9370367385541452e-01 -4.5754453507352577e-01 0.0000000000000000e+00  1.4708219741526487e+00 -9.4637678153042637e-01 0.0000000000000000e+00  1.3561251971338435e+00 2.9965248873266981e-01 0.0000000000000000e+00  5.3804350014331503e-01 -2.8479780261281606e-01 0.0000000000000000e+00  8.7910238229278095e-03 -2.8067528551648130e-01 0.0000000000000000e+00  7.4056880739484998e-01 9.5577571597669303e-02 0.0000000000000000e+00  1.1897205071675434e+00 -1.8834007635218081e-01 0.0000000000000000e+00  4.6809146400400142e-01 -2.6065340953273519e-01 0.0000000000000000e+00  9.2582553561460806e-02 -9.6071731619552792e-03 0.0000000000000000e+00  -2.1825857869353379e-01 7.8336815518646463e-02 0.0000000000000000e+00  8.7533568761100300e-01 2.1951503842463607e-02 0.0000000000000000e+00  4.3442682090442075e-01 -3.4882313480053662e-01 0.0000000000000000e+00  6.5625010003281148e-01 0.0000000000000000e+00 0.0000000000000000e+00  8.6615408052874376e-01 -3.2436449578182834e-02 0.0000000000000000e+00  5.9377532865351490e-01 2.0471176888749210e-01 0.0000000000000000e+00  4.9081043187247064e-01 3.9295219395782610e-01 0.0000000000000000e+00  9.8604553896747849e-01 1.9373104147221021e-01 0.0000000000000000e+00  7.1248247512688989e-01 2.7880657701505579e-01 0.0000000000000000e+00  1.8656774371816682e+00 7.2637607412009986e-01 0.0000000000000000e+00  1.1323257322746634e+00 -2.9896343063616493e-01 0.0000000000000000e+00  8.6154504683281896e-01 1.2948938715484744e+00 0.0000000000000000e+00  1.8098734983709730e+00 -6.4364899572085932e-01 0.0000000000000000e+00  6.2347776175796499e-01 1.4624154141654748e+00 0.0000000000000000e+00  3.9252819527154148e-01 2.7457294989855097e-01 0.0000000000000000e+00  1.2300971234305831e+00 -5.9376998067455056e-02 0.0000000000000000e+00  1.7198982843268715e+00 -5.8247680081525077e-01 0.0000000000000000e+00  2.2420174753742104e+00 1.4725214221775327e+00 0.0000000000000000e+00  1.8190768629676153e+00 1.9375028386074045e-01 0.0000000000000000e+00  3.8898527426462270e-02 8.2448941358014927e-04 0.0000000000000000e+00  7.7186412439646979e-01 -8.3929932934737084e-01 0.0000000000000000e+00  8.8255329457709109e-01 2.4527753224237869e-01 0.0000000000000000e+00  5.1483587759412275e-01 6.2855172322338804e-01 0.0000000000000000e+00  1.7142468559058055e+00 -6.0002197098416432e-01 0.0000000000000000e+00  2.7396555039831316e-01 8.2414016925448064e-01 0.0000000000000000e+00  1.3996475776007904e+00 1.0086386364815911e-01 0.0000000000000000e+00  1.4565034939365697e+00 -6.2281871883421047e-02 0.0000000000000000e+00  1.4605847411735422e+00 -3.6209159930578871e-01 0.0000000000000000e+00  9.4270857649607520e-01 -8.5085793087440875e-01 0.0000000000000000e+00  1.1945557242176001e+00 3.0790256449447018e-01 0.0000000000000000e+00  2.6320283499555026e-02 2.4472714712396890e-01 0.0000000000000000e+00  1.3120260750065649e+00 1.0430981931288452e+00 0.0000000000000000e+00  1.8360057516377715e+00 9.8791798864410174e-01 0.0000000000000000e+00  1.4196700613028976e+00 9.1522802444032492e-01 0.0000000000000000e+00  1.3525298752755186e+00 8.1985682588880027e-01 0.0000000000000000e+00  1.0327773200832076e+00 7.5452173048185334e-01 0.0000000000000000e+00  1.0721487469873729e+00 -7.2028818809498740e-02 0.0000000000000000e+00  1.3874841796452362e+00 -9.0219179600039445e-01 0.0000000000000000e+00  2.0809216326740749e+00 9.9687761472246703e-03 0.0000000000000000e+00  1.4338385609618052e+00 2.3002737191205844e-01 0.0000000000000000e+00  1.1912114444972661e+00 4.3119233821695656e-03 0.0000000000000000e+00  1.1824595367294788e+00 1.6067470178168043e-02 0.0000000000000000e+00  -1.0634454869261162e-01 3.7435817361156198e-01 0.0000000000000000e+00  1.6611568810759954e+00 -2.9100132309916243e-01 0.0000000000000000e+00  1.9850451376242080e+00 -9.0118936960908513e-01 0.0000000000000000e+00  1.4656788645112724e+00 -1.1600131829025302e+00 0.0000000000000000e+00  5.8699861852394519e-01 -2.3369580059854591e-02 0.0000000000000000e+00  1.6391403644170699e+00 1.1286952680033989e-01 0.0000000000000000e+00  9.0209261841698363e-01 2.5989459834554618e-01 0.0000000000000000e+00  6.4816929466019510e-02 -1.1675049877701073e-01 0.0000000000000000e+00  4.1914426197395416e-01 1.1303263353727601e-01 0.0000000000000000e+00  2.8451996312155403e-01 -1.4516609977061640e-02 0.0000000000000000e+00  8.1379702744433746e-01 -5.6553696447267732e-01 0.0000000000000000e+00  8.7314542063656075e-01 1.4910902911743332e-01 0.0000000000000000e+00  8.2941746803217853e-01 1.7424995234496471e-01 0.0000000000000000e+00  1.2305165154561233e+00 -4.0315775136839105e-01 0.0000000000000000e+00  1.4527450766799932e+00 1.9697583352323039e-01 0.0000000000000000e+00  1.4033213307697081e+00 -3.6370144341338390e-01 0.0000000000000000e+00  1.8599721678404277e+00 4.8218797326222529e-01 0.0000000000